/*--------------------------------*- C++ -*----------------------------------*\
| =========                 |                                                 |
| \\      /  F ield         | OpenFOAM: The Open Source CFD Toolbox           |
|  \\    /   O peration     | Version:  v2306                                 |
|   \\  /    A nd           | Website:  www.openfoam.com                      |
|    \\/     M anipulation  |                                                 |
\*---------------------------------------------------------------------------*/
FoamFile
{
    version     2.0;
    format      ascii;
    class       volScalarField;
    object      n1;
}
// * * * * * * * * * * * * * * * * * * * * * * * * * * * * * * * * * * * * * //

dimensions      [0 0 0 0 0 0 0];

internalField   uniform 0.5;



boundaryField
{
    perim
    {
        type fixedValue;
        value uniform 1.5758419778233563324;
        
    }



    bottom
    {
        type    wedge;
    }

    top
    {
          type            wedge;
    }

    front
    {
        type            fixedValue;
        value nonuniform List<scalar> 
        160
        (
        0.79669260491185911466
        0.79672060695139546027
        0.79678221862935416642
        0.79687585581274267277
        0.79700127579606983019
        0.79715841375811657965
        0.79734726318575532833
        0.79756784636461053317
        0.79782020346877213779
        0.79810438855852583462
        0.79842046679764022699
        0.79876851400383763746
        0.79914861518073343483
        0.79956086508502433041
        0.80000536693769064289
        0.80048223350687575106
        0.80099158569561434984
        0.80153355402201309499
        0.80210827696419428889
        0.80271590282099036795
        0.80335658774471796484
        0.80403049800132941893
        0.80473780763537916538
        0.80547870116547837238
        0.80625337082746229012
        0.8070620197520549377
        0.8079048587287456229
        0.80878210992200416651
        0.80969400309227002044
        0.81064077991633975984
        0.81162268959391048462
        0.81263999384776841595
        0.81369296183474326689
        0.81478187591238548926
        0.81590702576202123186
        0.81706871502107425442
        0.81826725451304427317
        0.81950296985869464095
        0.8207761936930747515
        0.82208727438478901295
        0.82343656710333346105
        0.82482444379387687139
        0.82625128293895555576
        0.82771748095692365688
        0.82922344048011897844
        0.83076958336876871591
        0.83235633730267000185
        0.83398415062931985364
        0.83565347703754433439
        0.83736479248936246389
        0.83911857771137132733
        0.84091533749490787741
        0.84275558070378242537
        0.84463984226730515203
        0.84656866036037636825
        0.84854260145973714469
        0.85056223430375599293
        0.85262815843449879516
        0.85474097448899633012
        0.85690131670940883346
        0.85910981905402206138
        0.8613671522260498703
        0.86367398501989134374
        0.86603102649722263351
        0.8684389819008896394
        0.87089860069618008076
        0.87341062628967092163
        0.87597585075570938429
        0.87859505748860577956
        0.88126908355132638206
        0.8839987542647763652
        0.88678495424951508941
        0.88962855281316211009
        0.89253048490925279701
        0.89549166602022534089
        0.8985130844331949973
        0.90159570412853506927
        0.90474056997367569011
        0.90794869691236568254
        0.91122118990845624165
        0.91455911748444607134
        0.91796364851192446821
        0.92143590786528384307
        0.92497713245922541514
        0.92858850645897905718
        0.93227133931391348298
        0.93602687759309544102
        0.93985650816419685771
        0.9437615432954522543
        0.94774345258875014597
        0.95180361749747965927
        0.95594359615087132198
        0.96016484287238179629
        0.96446901063937451326
        0.96885763053719264892
        0.97333245729638318
        0.97789510287060554816
        0.98254743129654054101
        0.98729113972421711498
        0.99212820976899318559
        0.99706042833322339192
        1.0020899036837547236
        1.0072185172643162154
        1.0124485139574541659
        1.0177818747740927652
        1.0232209921710597733
        1.028767951990840146
        1.0344253063340127508
        1.0401952513769414654
        1.0460805121762959402
        1.0520834009788617713
        1.0582068305024072696
        1.0644532350274418242
        1.0708257312005742268
        1.0773268815139012133
        1.0839600245668850054
        1.0907278574375676161
        1.0976339606789748959
        1.1046811725007974481
        1.1118733376383556077
        1.1192134421162340807
        1.1267056195958884413
        1.1343530106931321022
        1.1421600655827888193
        1.1501300862841292716
        1.1582678702918456359
        1.1665768878041333778
        1.1750623180922961097
        1.1837278061808507168
        1.1925789517194962386
        1.2016195809646439407
        1.2108557572600948671
        1.2202914941171729701
        1.2299333672582752897
        1.2397855829169825981
        1.2498552840025614064
        1.2601468741705685872
        1.2706681253206781879
        1.2814236422040732322
        1.2924218955170481138
        1.303667693439899633
        1.3151702844405770421
        1.3269346807410902223
        1.3389709980767630082
        1.3512844511426045369
        1.3638861245270246236
        1.3767814310923431886
        1.389982539780162174
        1.4034950539079036336
        1.4173323583089538769
        1.4315002348313714542
        1.4460134342540214014
        1.4608778998503504365
        1.4761099198057221482
        1.4917155753706670129
        1.5077128883887245259
        1.524108046892587609
        1.5409210313674994719
        1.5581580960475058806
        1.5758414386943970786
        );    
    }

back
    {
        type            fixedValue;
        value nonuniform List<scalar> 
        160
        (
        0.79669260491185911466
        0.79672060695139546027
        0.79678221862935416642
        0.79687585581274267277
        0.79700127579606983019
        0.79715841375811657965
        0.79734726318575532833
        0.79756784636461053317
        0.79782020346877213779
        0.79810438855852583462
        0.79842046679764022699
        0.79876851400383763746
        0.79914861518073343483
        0.79956086508502433041
        0.80000536693769064289
        0.80048223350687575106
        0.80099158569561434984
        0.80153355402201309499
        0.80210827696419428889
        0.80271590282099036795
        0.80335658774471796484
        0.80403049800132941893
        0.80473780763537916538
        0.80547870116547837238
        0.80625337082746229012
        0.8070620197520549377
        0.8079048587287456229
        0.80878210992200416651
        0.80969400309227002044
        0.81064077991633975984
        0.81162268959391048462
        0.81263999384776841595
        0.81369296183474326689
        0.81478187591238548926
        0.81590702576202123186
        0.81706871502107425442
        0.81826725451304427317
        0.81950296985869464095
        0.8207761936930747515
        0.82208727438478901295
        0.82343656710333346105
        0.82482444379387687139
        0.82625128293895555576
        0.82771748095692365688
        0.82922344048011897844
        0.83076958336876871591
        0.83235633730267000185
        0.83398415062931985364
        0.83565347703754433439
        0.83736479248936246389
        0.83911857771137132733
        0.84091533749490787741
        0.84275558070378242537
        0.84463984226730515203
        0.84656866036037636825
        0.84854260145973714469
        0.85056223430375599293
        0.85262815843449879516
        0.85474097448899633012
        0.85690131670940883346
        0.85910981905402206138
        0.8613671522260498703
        0.86367398501989134374
        0.86603102649722263351
        0.8684389819008896394
        0.87089860069618008076
        0.87341062628967092163
        0.87597585075570938429
        0.87859505748860577956
        0.88126908355132638206
        0.8839987542647763652
        0.88678495424951508941
        0.88962855281316211009
        0.89253048490925279701
        0.89549166602022534089
        0.8985130844331949973
        0.90159570412853506927
        0.90474056997367569011
        0.90794869691236568254
        0.91122118990845624165
        0.91455911748444607134
        0.91796364851192446821
        0.92143590786528384307
        0.92497713245922541514
        0.92858850645897905718
        0.93227133931391348298
        0.93602687759309544102
        0.93985650816419685771
        0.9437615432954522543
        0.94774345258875014597
        0.95180361749747965927
        0.95594359615087132198
        0.96016484287238179629
        0.96446901063937451326
        0.96885763053719264892
        0.97333245729638318
        0.97789510287060554816
        0.98254743129654054101
        0.98729113972421711498
        0.99212820976899318559
        0.99706042833322339192
        1.0020899036837547236
        1.0072185172643162154
        1.0124485139574541659
        1.0177818747740927652
        1.0232209921710597733
        1.028767951990840146
        1.0344253063340127508
        1.0401952513769414654
        1.0460805121762959402
        1.0520834009788617713
        1.0582068305024072696
        1.0644532350274418242
        1.0708257312005742268
        1.0773268815139012133
        1.0839600245668850054
        1.0907278574375676161
        1.0976339606789748959
        1.1046811725007974481
        1.1118733376383556077
        1.1192134421162340807
        1.1267056195958884413
        1.1343530106931321022
        1.1421600655827888193
        1.1501300862841292716
        1.1582678702918456359
        1.1665768878041333778
        1.1750623180922961097
        1.1837278061808507168
        1.1925789517194962386
        1.2016195809646439407
        1.2108557572600948671
        1.2202914941171729701
        1.2299333672582752897
        1.2397855829169825981
        1.2498552840025614064
        1.2601468741705685872
        1.2706681253206781879
        1.2814236422040732322
        1.2924218955170481138
        1.303667693439899633
        1.3151702844405770421
        1.3269346807410902223
        1.3389709980767630082
        1.3512844511426045369
        1.3638861245270246236
        1.3767814310923431886
        1.389982539780162174
        1.4034950539079036336
        1.4173323583089538769
        1.4315002348313714542
        1.4460134342540214014
        1.4608778998503504365
        1.4761099198057221482
        1.4917155753706670129
        1.5077128883887245259
        1.524108046892587609
        1.5409210313674994719
        1.5581580960475058806
        1.5758414386943970786
        );
    }

}


// ************************************************************************* //
