/*--------------------------------*- C++ -*----------------------------------*\
| =========                 |                                                 |
| \\      /  F ield         | OpenFOAM: The Open Source CFD Toolbox           |
|  \\    /   O peration     | Version:  v2306                                 |
|   \\  /    A nd           | Website:  www.openfoam.com                      |
|    \\/     M anipulation  |                                                 |
\*---------------------------------------------------------------------------*/
FoamFile
{
    version     2.0;
    format      ascii;
    class       volScalarField;
    object      n2;
}
// * * * * * * * * * * * * * * * * * * * * * * * * * * * * * * * * * * * * * //

dimensions      [0 0 0 0 0 0 0];

internalField  uniform 0.5;

boundaryField
{

    perim
    {
        type fixedValue;
        value uniform 0.1577412466576213;
        
    }


    bottom
    {
        type    wedge;
    }

    top
    {
          type            wedge;
    }

    front
    {
        type            fixedValue;
        value nonuniform List<scalar> 
160
(
0.3137975010431575118
0.31378647210008570045
0.31376220832784246229
0.31372533951774539407
0.31367597009986558643
0.31361413735041016038
0.31353985862000294249
0.31345314279764868726
0.31335399483399650755
0.31324241706656780204
0.31311841065000495243
0.31298197537604494078
0.31283311070712532809
0.31267181507663799334
0.31249808698658693151
0.31231192397156709584
0.31211332389418328104
0.31190228360441235589
0.31167880049560753308
0.31144287084938071519
0.31119449169706475677
0.3109336588243722943
0.31066036897977233888
0.31037461750438471997
0.31007640093041816121
0.30976571419497561655
0.30944255367565964843
0.3091069139405350219
0.30875879127337130248
0.30839817990523937796
0.30802507608830387298
0.30763947374715588934
0.30724136916751393356
0.30683075599720061044
0.30640763062458109545
0.3059719864499491071
0.30552382003811956457
0.30506312457070999811
0.30458989686812598663
0.30410412992171065305
0.30360582089251192395
0.30309496260935470113
0.30257155266544633054
0.30203558375391775792
0.30148705399867520294
0.30092595598268434554
0.30035228846669798086
0.29976604394729505776
0.29916722193646311245
0.29855581486589799489
0.2979318231221283475
0.29729523909058358511
0.29664606416531036359
0.29598429070050685796
0.29530992124119942455
0.29462294812101919028
0.29392337519083377995
0.29321119476909951462
0.29248641217979609586
0.29174901972531797067
0.29099902438355484957
0.29023641843253511485
0.28946121069962377215
0.28867339342148601311
0.2878729774866891078
0.28705995506339587742
0.2862343393308074968
0.28539612234970351823
0.2845453198387617455
0.28368192369894940086
0.28280595245859463382
0.28191739779084934447
0.28101628132732214826
0.28010259442752077907
0.27917636214578572806
0.27823757542180177493
0.27728626308054710181
0.27632241551254060896
0.27534606569268743614
0.27435720330669155498
0.27335586589332194762
0.27234204224800395711
0.27131577492558117681
0.27027705161202597584
0.26922592037276804611
0.26816236752708677571
0.26708644719230389963
0.26599814402086419118
0.26489751877505141042
0.26378455409206380544
0.26265931802950925888
0.26152179080666965172
0.26037204849028372511
0.25921006841816152111
0.25803593545021741296
0.25684962351098561406
0.25565122711540644307
0.25444071616651758871
0.25321819578229970427
0.25198363115062671902
0.25073713903597083519
0.24947867912190133111
0.24820838096854122568
0.24692619785946332001
0.24563227341665874737
0.24432655350921897441
0.24300919721682176511
0.24168014184727315552
0.24033956347723137159
0.23898738955915935223
0.23762381486475353531
0.23624875553336799339
0.23486242690544625877
0.23346473216761010061
0.23205590929700120606
0.23063584668607545192
0.22920480723133154766
0.2277626624658612986
0.22630970272540712473
0.2248457803706090663
0.2233712159583114143
0.22188584008926467983
0.22039000661238875023
0.21888352147774645107
0.21736677521619310327
0.2158395459011826778
0.21430226448684669416
0.21275467757424765258
0.21119726066926808317
0.20962972489699346901
0.2080525948696083649
0.20646554178344916908
0.20486914438010220274
0.20326302898012571507
0.20164783399240893136
0.20002313537143698308
0.19838963729639930156
0.19674685926892879206
0.19509557796120763351
0.19343524968107078665
0.19176673099525015642
0.1900894075602626021
0.18840422398179926256
0.18671048702358059024
0.18500923828658080716
0.1832996965436841097
0.18158301023375728045
0.17985830010619188735
0.17812683224655190273
0.176387618329759438
0.17464205394868989596
0.17288902954497353814
0.17113008322270728545
0.16936397082810289438
0.16759238722124736309
0.16581393898609758653
0.1640304933269786658
0.16224049148435670809
0.16044599005190687824
0.15864524734509938275
)
;   }

back
    {
        type            fixedValue;
        value nonuniform List<scalar> 
160
(
0.3137975010431575118
0.31378647210008570045
0.31376220832784246229
0.31372533951774539407
0.31367597009986558643
0.31361413735041016038
0.31353985862000294249
0.31345314279764868726
0.31335399483399650755
0.31324241706656780204
0.31311841065000495243
0.31298197537604494078
0.31283311070712532809
0.31267181507663799334
0.31249808698658693151
0.31231192397156709584
0.31211332389418328104
0.31190228360441235589
0.31167880049560753308
0.31144287084938071519
0.31119449169706475677
0.3109336588243722943
0.31066036897977233888
0.31037461750438471997
0.31007640093041816121
0.30976571419497561655
0.30944255367565964843
0.3091069139405350219
0.30875879127337130248
0.30839817990523937796
0.30802507608830387298
0.30763947374715588934
0.30724136916751393356
0.30683075599720061044
0.30640763062458109545
0.3059719864499491071
0.30552382003811956457
0.30506312457070999811
0.30458989686812598663
0.30410412992171065305
0.30360582089251192395
0.30309496260935470113
0.30257155266544633054
0.30203558375391775792
0.30148705399867520294
0.30092595598268434554
0.30035228846669798086
0.29976604394729505776
0.29916722193646311245
0.29855581486589799489
0.2979318231221283475
0.29729523909058358511
0.29664606416531036359
0.29598429070050685796
0.29530992124119942455
0.29462294812101919028
0.29392337519083377995
0.29321119476909951462
0.29248641217979609586
0.29174901972531797067
0.29099902438355484957
0.29023641843253511485
0.28946121069962377215
0.28867339342148601311
0.2878729774866891078
0.28705995506339587742
0.2862343393308074968
0.28539612234970351823
0.2845453198387617455
0.28368192369894940086
0.28280595245859463382
0.28191739779084934447
0.28101628132732214826
0.28010259442752077907
0.27917636214578572806
0.27823757542180177493
0.27728626308054710181
0.27632241551254060896
0.27534606569268743614
0.27435720330669155498
0.27335586589332194762
0.27234204224800395711
0.27131577492558117681
0.27027705161202597584
0.26922592037276804611
0.26816236752708677571
0.26708644719230389963
0.26599814402086419118
0.26489751877505141042
0.26378455409206380544
0.26265931802950925888
0.26152179080666965172
0.26037204849028372511
0.25921006841816152111
0.25803593545021741296
0.25684962351098561406
0.25565122711540644307
0.25444071616651758871
0.25321819578229970427
0.25198363115062671902
0.25073713903597083519
0.24947867912190133111
0.24820838096854122568
0.24692619785946332001
0.24563227341665874737
0.24432655350921897441
0.24300919721682176511
0.24168014184727315552
0.24033956347723137159
0.23898738955915935223
0.23762381486475353531
0.23624875553336799339
0.23486242690544625877
0.23346473216761010061
0.23205590929700120606
0.23063584668607545192
0.22920480723133154766
0.2277626624658612986
0.22630970272540712473
0.2248457803706090663
0.2233712159583114143
0.22188584008926467983
0.22039000661238875023
0.21888352147774645107
0.21736677521619310327
0.2158395459011826778
0.21430226448684669416
0.21275467757424765258
0.21119726066926808317
0.20962972489699346901
0.2080525948696083649
0.20646554178344916908
0.20486914438010220274
0.20326302898012571507
0.20164783399240893136
0.20002313537143698308
0.19838963729639930156
0.19674685926892879206
0.19509557796120763351
0.19343524968107078665
0.19176673099525015642
0.1900894075602626021
0.18840422398179926256
0.18671048702358059024
0.18500923828658080716
0.1832996965436841097
0.18158301023375728045
0.17985830010619188735
0.17812683224655190273
0.176387618329759438
0.17464205394868989596
0.17288902954497353814
0.17113008322270728545
0.16936397082810289438
0.16759238722124736309
0.16581393898609758653
0.1640304933269786658
0.16224049148435670809
0.16044599005190687824
0.15864524734509938275
)
;   }

}


// ************************************************************************* //
