/*--------------------------------*- C++ -*----------------------------------*\
| =========                 |                                                 |
| \\      /  F ield         | OpenFOAM: The Open Source CFD Toolbox           |
|  \\    /   O peration     | Version:  v2306                                 |
|   \\  /    A nd           | Website:  www.openfoam.com                      |
|    \\/     M anipulation  |                                                 |
\*---------------------------------------------------------------------------*/
FoamFile
{
    version     2.0;
    format      ascii;
    class       volScalarField;
    object      Psi;
}
// * * * * * * * * * * * * * * * * * * * * * * * * * * * * * * * * * * * * * //

dimensions      [0 0 0 0 0 0 0];

internalField  nonuniform List<scalar> 4800
(
-0.4651727364385851
-0.46520791886050195
-0.46528532488080937
-0.4654029547605376
-0.4655604895407132
-0.4657578289131832
-0.4659949412571442
-0.4662718261505876
-0.46658850114286826
-0.4669449960736574
-0.4673413502953342
-0.4677776111835789
-0.4682538332822651
-0.4687700777862748
-0.4693264122165111
-0.46992291020969146
-0.4705596513802821
-0.471236721229005
-0.4719542110830984
-0.4727122180581933
-0.4735108450361565
-0.4743502006541313
-0.47523039930265887
-0.4761515611301773
-0.47711381205334763
-0.4781172837713329
-0.47916211378428086
-0.48024844541444517
-0.4813764278306809
-0.4825462160748139
-0.4837579710909707
-0.485011859756301
-0.48630805491448026
-0.48764673541027653
-0.4890280861268565
-0.4904522980239105
-0.4919195681785648
-0.4934300998269139
-0.49498410240845164
-0.49658179161094224
-0.49822338941835426
-0.49990912415905836
-0.5016392305572958
-0.5034139497847315
-0.5052335295155247
-0.5070982239812917
-0.509008294029876
-0.5109640071837983
-0.5129656377028444
-0.515013466646097
-0.5171077819384832
-0.5192488784364968
-0.5214370579988656
-0.5236726295560876
-0.5259559091853941
-0.5282872201842378
-0.530666893149748
-0.5330952660563177
-0.5355726843397678
-0.5380995009791921
-0.5406760765860673
-0.5433027794905273
-0.5459799858356762
-0.5487080796684752
-0.5514874530395388
-0.5543185060988305
-0.5572016472012465
-0.5601372930073288
-0.5631258685949674
-0.5661678075653515
-0.5692635521611529
-0.5724135533779473
-0.5756182710892707
-0.5788781741637608
-0.5821937405975119
-0.585565457637199
-0.5889938219201953
-0.5924793396039562
-0.5960225265144043
-0.5996239082818673
-0.6032840204982816
-0.6070034088599897
-0.6107826293343658
-0.614622248309797
-0.6185228427723853
-0.6224850004634568
-0.6265093200670542
-0.6305964113753302
-0.6347468954876198
-0.6389614049840907
-0.6432405841372499
-0.6475850890942484
-0.6519955881017616
-0.656472761697355
-0.6610173029487734
-0.6656299176547927
-0.6703113246000512
-0.6750622557658311
-0.6798834566016762
-0.6847756862465636
-0.6897397178186802
-0.6947763386474545
-0.6998863505830046
-0.7050705702395216
-0.7103298293260493
-0.7156649749017212
-0.7210768697297154
-0.726566392544848
-0.7321344384327433
-0.7377819191102972
-0.743509763332315
-0.7493189171853614
-0.7552103445243629
-0.7611850272803632
-0.7672439659298584
-0.7733881798169621
-0.7796187076585591
-0.7859366078813638
-0.7923429591663212
-0.7988388608010257
-0.8054254332671863
-0.8121038186088327
-0.8188751810671049
-0.8257407074646239
-0.8327016078923641
-0.8397591161105056
-0.8469144902927027
-0.8541690134436507
-0.8615239942067145
-0.8689807672983201
-0.8765406943856323
-0.8842051645377615
-0.8919755951809843
-0.8998534325665918
-0.9078401528120862
-0.9159372623852872
-0.9241462992410013
-0.9324688333207503
-0.9409064677956199
-0.9494608395806674
-0.9581336206960378
-0.96692651879474
-0.9758412786556925
-0.9848796827231133
-0.9940435527469628
-1.0033347503316468
-1.0127551787414042
-1.0223067834553694
-1.0319915541578266
-1.0418115252959095
-1.0517687782773673
-1.0618654420262528
-1.0721036954139933
-1.0824857678073008
-1.0930139417619724
-1.1036905535559305
-1.114517996179366
-1.1254987198442286
-1.1366352353091689
-1.1479301143549212
0.10879232073887551
0.10875713831695866
0.10867973229665123
0.10856210241692299
0.10840456763674738
0.10820722826427742
0.10797011592031641
0.107693231026873
0.10737655603459234
0.10702006110380319
0.10662370688212641
0.10618744599388169
0.1057112238951955
0.10519497939118583
0.10463864496094949
0.10404214696776914
0.1034054057971785
0.1027283359484556
0.10201084609436223
0.1012528391192673
0.10045421214130412
0.0996148565233293
0.09873465787480173
0.09781349604728329
0.09685124512411297
0.09584777340612771
0.09480294339317974
0.09371661176301543
0.0925886293467797
0.0914188411026467
0.09020708608648992
0.08895319742115959
0.08765700226298034
0.08631832176718407
0.0849369710506041
0.08351275915355011
0.0820454889988958
0.08053495735054672
0.07898095476900896
0.07738326556651837
0.07574166775910635
0.07405593301840224
0.07232582662016485
0.07055110739272907
0.06873152766193591
0.06686683319616893
0.06495676314758458
0.0630010499936623
0.06099941947461618
0.05895159053136356
0.056857275238977434
0.054716178740963795
0.052527999178594964
0.05029242762137298
0.04800914799206646
0.04567783699322281
0.04329816402771258
0.04086979112114286
0.03839237283769281
0.03586555619826848
0.03328898059139329
0.030662277686933304
0.027985071341784407
0.025256977508985368
0.02247760413792177
0.019646551078630115
0.01676340997621406
0.013827764170131762
0.01083918858249322
0.007797249612109147
0.004701505016307728
0.0015515037995132985
-0.0016532139118100586
-0.004913116986300148
-0.008228683420051341
-0.011600400459738425
-0.015028764742734735
-0.018514282426495554
-0.022057469336943747
-0.025658851104406688
-0.029318963320820957
-0.03303835168252911
-0.036817572156905176
-0.040657191132336346
-0.04455778559492474
-0.04851994328599618
-0.052544262889593574
-0.05663135419786958
-0.06078183831015915
-0.0649963478066301
-0.06927552695978934
-0.07362003191678779
-0.07803053092430101
-0.08250770451989442
-0.08705224577131276
-0.09166486047733213
-0.09634626742259056
-0.10109719858837052
-0.10591839942421555
-0.110810629069103
-0.11577466064121955
-0.12081128146999387
-0.12592129340554403
-0.13110551306206097
-0.13636477214858866
-0.1416999177242606
-0.1471118125522548
-0.1526013353673874
-0.15816938125528268
-0.16381686193283662
-0.1695447061548544
-0.17535386000790076
-0.18124528734690226
-0.1872199701029026
-0.19327890875239784
-0.19942312263950146
-0.20565365048109852
-0.21197155070390317
-0.21837790198886065
-0.22487380362356513
-0.2314603760897257
-0.23813876143137214
-0.24491012388964428
-0.2517756502871633
-0.25873655071490353
-0.265794058933045
-0.2729494331152421
-0.2802039562661901
-0.28755893702925395
-0.2950157101208595
-0.3025756372081717
-0.31024010736030094
-0.31801053800352375
-0.3258883753891312
-0.3338750956346256
-0.34197220520782656
-0.35018124206354073
-0.35850377614328965
-0.3669414106181593
-0.3754957824032068
-0.3841685635185772
-0.3929614616172794
-0.4018762214782319
-0.4109146255456527
-0.42007849556950216
-0.42936969315418616
-0.4387901215639436
-0.4483417262779088
-0.458026496980366
-0.4678464681184489
-0.47780372109990665
-0.48790038484879217
-0.4981386382365327
-0.5085207106298402
-0.5190488845845118
-0.5297254963784699
-0.5405529390019055
-0.551533662666768
-0.5626701781317083
-0.5739650571774606
0.3001140064646958
0.30007882404277897
0.30000141802247154
0.2998837881427433
0.2997262533625677
0.29952891399009773
0.2992918016461367
0.2990149167526933
0.29869824176041265
0.2983417468296235
0.2979453926079467
0.297509131719702
0.2970329096210158
0.29651666511700614
0.2959603306867698
0.29536383269358946
0.2947270915229988
0.2940500216742759
0.29333253182018254
0.2925745248450876
0.29177589786712443
0.2909365422491496
0.29005634360062205
0.2891351817731036
0.2881729308499333
0.287169459131948
0.28612462911900005
0.28503829748883575
0.2839103150726
0.282740526828467
0.28152877181231023
0.2802748831469799
0.27897868798880066
0.2776400074930044
0.2762586567764244
0.2748344448793704
0.2733671747247161
0.27185664307636703
0.27030264049482927
0.2687049512923387
0.26706335348492666
0.26537761874422255
0.26364751234598516
0.2618727931185494
0.2600532133877562
0.25818851892198924
0.2562784488734049
0.2543227357194826
0.2523211052004365
0.2502732762571839
0.24817896096479775
0.2460378644667841
0.24384968490441528
0.2416141133471933
0.23933083371788677
0.23699952271904312
0.2346198497535329
0.23219147684696317
0.22971405856351312
0.2271872419240888
0.2246106663172136
0.22198396341275362
0.21930675706760472
0.21657866323480568
0.21379928986374208
0.21096823680445043
0.20808509570203437
0.20514944989595207
0.20216087430831353
0.19911893533792946
0.19602319074212804
0.1928731895253336
0.18966847181401025
0.18640856873952016
0.18309300230576897
0.1797212852660819
0.17629292098308558
0.17280740329932476
0.16926421638887656
0.16566283462141362
0.16200272240499936
0.1582833340432912
0.15450411356891514
0.15066449459348397
0.14676390013089557
0.14280174243982413
0.13877742283622674
0.13469033152795074
0.13053984741566116
0.1263253379191902
0.12204615876603098
0.11770165380903252
0.1132911548015193
0.10881398120592589
0.10426943995450755
0.09965682524848818
0.09497541830322975
0.0902244871374498
0.08540328630160476
0.08051105665671732
0.07554702508460076
0.07051040425582644
0.06540039232027628
0.06021617266375934
0.05495691357723165
0.04962176800155971
0.044209873173565506
0.03872035035843291
0.03315230447053763
0.02750482379298369
0.021776979570965915
0.015967825717919548
0.01007639837891805
0.004101715622917723
-0.001957223026577526
-0.008101436913681148
-0.014331964755278204
-0.020649864978082855
-0.027056216263040334
-0.033552117897744815
-0.04013869036390538
-0.046817075705551825
-0.05358843816382397
-0.060453964561343
-0.06741486498908322
-0.07447237320722466
-0.0816277473894218
-0.08888227054036979
-0.09623725130343364
-0.10369402439503916
-0.1112539514823514
-0.11891842163448063
-0.12668885227770343
-0.13456668966331087
-0.14255340990880527
-0.15065051948200625
-0.15885955633772042
-0.16718209041746934
-0.175619724892339
-0.1841740966773865
-0.1928468777927569
-0.2016397758914591
-0.21055453575241156
-0.2195929398198324
-0.22875680984368185
-0.23804800742836585
-0.24746843583812328
-0.2570200405520885
-0.2667048112545457
-0.27652478239262857
-0.28648203537408634
-0.29657869912297186
-0.3068169525107124
-0.31719902490401986
-0.3277271988586915
-0.3384038106526496
-0.3492312532760852
-0.36021197694094764
-0.37134849240588796
-0.3826433714516403
0.3957748493276058
0.39573966690568896
0.39566226088538153
0.3955446310056533
0.3953870962254777
0.3951897568530077
0.3949526445090467
0.3946757596156033
0.39435908462332264
0.3940025896925335
0.3936062354708567
0.393169974582612
0.3926937524839258
0.39217750797991613
0.3916211735496798
0.39102467555649945
0.3903879343859088
0.3897108645371859
0.38899337468309253
0.3882353677079976
0.3874367407300344
0.3865973851120596
0.38571718646353204
0.3847960246360136
0.3838337737128433
0.382830301994858
0.38178547198191004
0.38069914035174574
0.37957115793551
0.378401369691377
0.3771896146752202
0.3759357260098899
0.37463953085171064
0.37330085035591437
0.3719194996393344
0.3704952877422804
0.3690280175876261
0.367517485939277
0.36596348335773926
0.36436579415524867
0.36272419634783665
0.36103846160713254
0.35930835520889515
0.3575336359814594
0.3557140562506662
0.35384936178489923
0.3519392917363149
0.3499835785823926
0.3479819480633465
0.34593411912009386
0.34383980382770774
0.3416987073296941
0.33951052776732527
0.3372749562101033
0.33499167658079676
0.3326603655819531
0.3302806926164429
0.32785231970987316
0.3253749014264231
0.3228480847869988
0.3202715091801236
0.3176448062756636
0.3149675999305147
0.31223950609771567
0.30946013272665207
0.3066290796673604
0.30374593856494436
0.30081029275886206
0.2978217171712235
0.29477977820083945
0.29168403360503803
0.2885340323882436
0.28532931467692024
0.28206941160243015
0.27875384516867896
0.2753821281289919
0.27195376384599557
0.26846824616223475
0.26492505925178655
0.2613236774843236
0.25766356526790934
0.2539441769062012
0.2501649564318251
0.24632533745639396
0.24242474299380556
0.23846258530273412
0.23443826569913673
0.23035117439086072
0.22620069027857115
0.2219861807821002
0.21770700162894097
0.21336249667194251
0.2089519976644293
0.20447482406883588
0.19993028281741754
0.19531766811139817
0.19063626116613974
0.18588533000035978
0.18106412916451475
0.1761718995196273
0.17120786794751075
0.16617124711873643
0.16106123518318627
0.15587701552666933
0.15061775644014164
0.1452826108644697
0.1398707160364755
0.1343811932213429
0.12881314733344762
0.12316566665589368
0.1174378224338759
0.11162866858082954
0.10573724124182804
0.09976255848582771
0.09370361983633246
0.08755940594922884
0.08132887810763179
0.07501097788482713
0.06860462659986966
0.062108724965165174
0.05552215249900461
0.048843767157358164
0.04207240469908602
0.03520687830156699
0.028245977873826766
0.021188469655685327
0.014033095473488189
0.0067785723225401995
-0.0005764084405236458
-0.008033181532129174
-0.01559310861944141
-0.02325757877157064
-0.031028009414793445
-0.03890584680040088
-0.046892567045895284
-0.05498967661909626
-0.06319871347481043
-0.07152124755455935
-0.07995888202942902
-0.0885132538144765
-0.0971860349298469
-0.1059789330285491
-0.11489369288950158
-0.12393209695692242
-0.13309596698077186
-0.14238716456545586
-0.1518075929752133
-0.1613591976891785
-0.17104396839163571
-0.18086393952971858
-0.19082119251117635
-0.20091785626006187
-0.2111561096478024
-0.22153818204110987
-0.23206635599578151
-0.24274296778973958
-0.2535704104131752
-0.26455113407803765
-0.275687649542978
-0.2869825285887303
0.45317135504535194
0.4531361726234351
0.45305876660312766
0.4529411367233994
0.4527836019432238
0.45258626257075385
0.45234915022679284
0.45207226533334943
0.45175559034106877
0.4513990954102796
0.45100274118860284
0.4505664803003581
0.4500902582016719
0.44957401369766226
0.4490176792674259
0.4484211812742456
0.4477844401036549
0.447107370254932
0.44638988040083866
0.44563187342574373
0.44483324644778055
0.4439938908298057
0.44311369218127816
0.4421925303537597
0.4412302794305894
0.44022680771260414
0.43918197769965617
0.43809564606949186
0.4369676636532561
0.4357978754091231
0.43458612039296635
0.433332231727636
0.43203603656945677
0.4306973560736605
0.42931600535708053
0.42789179346002654
0.4264245233053722
0.42491399165702315
0.4233599890754854
0.4217622998729948
0.4201207020655828
0.41843496732487867
0.4167048609266413
0.4149301416992055
0.41311056196841234
0.41124586750264536
0.409335797454061
0.4073800843001387
0.4053784537810926
0.40333062483784
0.40123630954545386
0.3990952130474402
0.3969070334850714
0.3946714619278494
0.3923881822985429
0.39005687129969924
0.387677198334189
0.3852488254276193
0.38277140714416924
0.3802445905047449
0.3776680148978697
0.37504131199340973
0.37236410564826083
0.3696360118154618
0.3668566384443982
0.36402558538510654
0.3611424442826905
0.3582067984766082
0.35521822288896965
0.3521762839185856
0.34908053932278416
0.3459305381059897
0.34272582039466637
0.3394659173201763
0.3361503508864251
0.332778633846738
0.3293502695637417
0.3258647518799809
0.3223215649695327
0.31872018320206974
0.31506007098565547
0.3113406826239473
0.30756146214957125
0.3037218431741401
0.2998212487115517
0.29585909102048025
0.29183477141688285
0.28774768010860685
0.2835971959963173
0.2793826864998463
0.2751035073466871
0.27075900238968864
0.2663485033821754
0.261871329786582
0.25732678853516366
0.2527141738291443
0.24803276688388587
0.2432818357181059
0.23846063488226088
0.23356840523737343
0.22860437366525688
0.22356775283648256
0.2184577409009324
0.21327352124441545
0.20801426215788776
0.20267911658221582
0.19726722175422162
0.19177769893908903
0.18620965305119375
0.1805621723736398
0.17483432815162203
0.16902517429857566
0.16313374695957417
0.15715906420357384
0.1511001255540786
0.14495591166697497
0.1387253838253779
0.13240748360257326
0.12600113231761578
0.1195052306829113
0.11291865821675073
0.10624027287510429
0.09946891041683215
0.09260338401931312
0.0856424835915729
0.07858497537343145
0.07142960119123432
0.06417507804028633
0.05682009727722248
0.04936332418561695
0.04180339709830472
0.034138926946175485
0.026368496302952682
0.01849065891734525
0.010503938671850843
0.0024068290986498653
-0.005802207757064304
-0.014124741836813226
-0.022562376311682897
-0.031116748096730373
-0.03978952921210077
-0.04858242731080298
-0.05749718717175545
-0.0665355912391763
-0.07569946126302574
-0.08499065884770973
-0.09441108725746716
-0.10396269197143237
-0.11364746267388959
-0.12346743381197245
-0.13342468679343022
-0.14352135054231574
-0.15375960393005628
-0.16414167632336374
-0.1746698502780354
-0.18534646207199346
-0.19617390469542906
-0.20715462836029153
-0.21829114382523185
-0.22958602287098417
0.4914356921905159
0.49140050976859906
0.49132310374829163
0.4912054738685634
0.4910479390883878
0.4908505997159178
0.4906134873719568
0.4903366024785134
0.49001992748623274
0.4896634325554436
0.4892670783337668
0.4888308174455221
0.4883545953468359
0.48783835084282623
0.4872820164125899
0.48668551841940955
0.4860487772488189
0.485371707400096
0.48465421754600263
0.4838962105709077
0.4830975835929445
0.4822582279749697
0.48137802932644214
0.4804568674989237
0.4794946165757534
0.4784911448577681
0.47744631484482014
0.47635998321465584
0.4752320007984201
0.4740622125542871
0.4728504575381303
0.4715965688728
0.47030037371462075
0.46896169321882447
0.4675803425022445
0.4661561306051905
0.4646888604505362
0.4631783288021871
0.46162432622064936
0.46002663701815877
0.45838503921074675
0.45669930447004264
0.45496919807180525
0.4531944788443695
0.4513748991135763
0.44951020464780933
0.447600134599225
0.4456444214453027
0.4436427909262566
0.44159496198300396
0.43950064669061784
0.4373595501926042
0.43517137063023537
0.4329357990730134
0.43065251944370686
0.4283212084448632
0.425941535479353
0.42351316257278326
0.4210357442893332
0.4185089276499089
0.4159323520430337
0.4133056491385737
0.4106284427934248
0.40790034896062577
0.40512097558956217
0.4022899225302705
0.39940678142785446
0.39647113562177216
0.3934825600341336
0.39044062106374955
0.38734487646794813
0.3841948752511537
0.38099015753983034
0.37773025446534025
0.37441468803158906
0.371042970991902
0.36761460670890567
0.36412908902514485
0.36058590211469665
0.3569845203472337
0.35332440813081945
0.3496050197691113
0.3458257992947352
0.34198618031930406
0.33808558585671566
0.3341234281656442
0.33009910856204683
0.3260120172537708
0.32186153314148125
0.3176470236450103
0.31336784449185107
0.3090233395348526
0.3046128405273394
0.300135666931746
0.29559112568032764
0.29097851097430827
0.28629710402904984
0.2815461728632699
0.27672497202742485
0.2718327423825374
0.26686871081042085
0.26183208998164653
0.25672207804609637
0.2515378583895794
0.24627859930305174
0.2409434537273798
0.2355315588993856
0.230042036084253
0.22447399019635772
0.21882650951880378
0.213098665296786
0.20728951144373964
0.20139808410473814
0.1954234013487378
0.18936446269924256
0.18322024881213894
0.1769897209705419
0.17067182074773724
0.16426546946277976
0.15776956782807527
0.1511829953619147
0.14450461002026826
0.13773324756199612
0.1308677211644771
0.12390682073673687
0.11684931251859543
0.10969393833639829
0.1024394151854503
0.09508443442238645
0.08762766133078093
0.08006773424346869
0.07240326409133946
0.06463283344811666
0.05675499606250922
0.04876827581701482
0.04067116624381384
0.03246212938809967
0.024139595308350748
0.015701960833481077
0.0071475890484336
-0.001525192066936798
-0.010318090165639004
-0.019232850026591475
-0.02827125409401232
-0.03743512411786176
-0.04672632170254576
-0.05614675011230319
-0.0656983548262684
-0.07538312552872561
-0.08520309666680848
-0.09516034964826625
-0.10525701339715177
-0.1154952667848923
-0.12587733917819977
-0.13640551313287141
-0.14708212492682948
-0.15790956755026508
-0.16889029121512755
-0.18002680668006787
-0.1913216857258202
0.5187673615799189
0.5187321791580021
0.5186547731376947
0.5185371432579664
0.5183796084777907
0.5181822691053208
0.5179451567613598
0.5176682718679164
0.5173515968756357
0.5169951019448467
0.5165987477231698
0.516162486834925
0.5156862647362389
0.5151700202322292
0.514613685801993
0.5140171878088126
0.5133804466382219
0.5127033767894991
0.5119858869354057
0.5112278799603107
0.5104292529823475
0.5095898973643727
0.5087096987158451
0.5077885368883267
0.5068262859651564
0.5058228142471711
0.5047779842342232
0.5036916526040589
0.5025636701878231
0.5013938819436901
0.5001821269275333
0.498928238262203
0.49763204310402376
0.4962933626082275
0.4949120118916475
0.4934877999945935
0.4920205298399392
0.49050999819159014
0.4889559956100524
0.4873583064075618
0.48571670860014976
0.48403097385944566
0.48230086746120826
0.4805261482337725
0.4787065685029793
0.47684187403721234
0.474931803988628
0.4729760908347057
0.4709744603156596
0.468926631372407
0.46683231608002085
0.4646912195820072
0.4625030400196384
0.4602674684624164
0.4579841888331099
0.4556528778342662
0.453273204868756
0.4508448319621863
0.4483674136787362
0.4458405970393119
0.4432640214324367
0.4406373185279767
0.4379601121828278
0.4352320183500288
0.4324526449789652
0.42962159191967353
0.4267384508172575
0.4238028050111752
0.42081422942353663
0.41777229045315256
0.41467654585735114
0.4115265446405567
0.40832182692923336
0.40506192385474327
0.4017463574209921
0.398374640381305
0.3949462760983087
0.39146075841454786
0.38791757150409967
0.3843161897366367
0.38065607752022246
0.3769366891585143
0.37315746868413824
0.36931784970870707
0.3654172552461187
0.36145509755504723
0.35743077795144984
0.35334368664317384
0.34919320253088426
0.3449786930344133
0.3406995138812541
0.3363550089242556
0.3319445099167424
0.327467336321149
0.32292279506973065
0.3183101803637113
0.31362877341845286
0.3088778422526729
0.30405664141682787
0.2991644117719404
0.29420038019982386
0.28916375937104954
0.2840537474354994
0.27886952777898244
0.27361026869245475
0.2682751231167828
0.2628632282887886
0.257373705473656
0.25180565958576073
0.2461581789082068
0.24043033468618902
0.23462118083314265
0.22872975349414115
0.22275507073814083
0.21669613208864558
0.21055191820154195
0.2043213903599449
0.19800349013714025
0.19159713885218277
0.1851012372174783
0.17851466475131772
0.17183627940967128
0.16506491695139913
0.1581993905538801
0.15123849012613988
0.14418098190799844
0.1370256077258013
0.1297710845748533
0.12241610381178947
0.11495933072018394
0.1073994036328717
0.09973493348074247
0.09196450283751967
0.08408666545191223
0.07609994520641783
0.06800283563321685
0.05979379877750268
0.05147126469775376
0.04303363022288409
0.03447925843783661
0.025806477322466215
0.017013579223764008
0.008098819362811538
-0.0009395847046093087
-0.01010345472845875
-0.019394652313142746
-0.028815080722900177
-0.03836668543686539
-0.0480514561393226
-0.05787142727740546
-0.06782868025886324
-0.07792534400774875
-0.08816359739548929
-0.09854566978879675
-0.1090738437434684
-0.11975045553742647
-0.13057789816086207
-0.14155862182572454
-0.15269513729066486
-0.1639900163364172
0.539266113621971
0.5392309312000542
0.5391535251797468
0.5390358953000185
0.5388783605198428
0.5386810211473729
0.5384439088034119
0.5381670239099685
0.5378503489176878
0.5374938539868988
0.5370974997652219
0.5366612388769771
0.536185016778291
0.5356687722742813
0.535112437844045
0.5345159398508647
0.533879198680274
0.5332021288315512
0.5324846389774578
0.5317266320023628
0.5309280050243996
0.5300886494064248
0.5292084507578972
0.5282872889303788
0.5273250380072085
0.5263215662892232
0.5252767362762752
0.524190404646111
0.5230624222298752
0.5218926339857421
0.5206808789695854
0.5194269903042551
0.5181307951460759
0.5167921146502796
0.5154107639336996
0.5139865520366456
0.5125192818819913
0.5110087502336422
0.5094547476521045
0.5078570584496138
0.5062154606422018
0.5045297259014978
0.5027996195032604
0.5010249002758246
0.4992053205450314
0.49734062607926444
0.4954305560306801
0.4934748428767578
0.4914732123577117
0.48942538341445907
0.48733106812207294
0.4851899716240593
0.48300179206169047
0.4807662205044685
0.47848294087516197
0.4761516298763183
0.4737719569108081
0.47134358400423837
0.4688661657207883
0.466339349081364
0.4637627734744888
0.4611360705700288
0.4584588642248799
0.4557307703920809
0.4529513970210173
0.4501203439617256
0.44723720285930957
0.44430155705322727
0.4413129814655887
0.43827104249520465
0.43517529789940324
0.4320252966826088
0.42882057897128545
0.42556067589679536
0.42224510946304417
0.4188733924233571
0.4154450281403608
0.41195951045659995
0.40841632354615176
0.4048149417786888
0.40115482956227455
0.3974354412005664
0.39365622072619033
0.38981660175075916
0.38591600728817077
0.3819538495970993
0.37792952999350193
0.37384243868522593
0.36969195457293635
0.3654774450764654
0.36119826592330617
0.3568537609663077
0.3524432619587945
0.3479660883632011
0.34342154711178274
0.3388089324057634
0.33412752546050495
0.329376594294725
0.32455539345887996
0.3196631638139925
0.31469913224187596
0.30966251141310164
0.3045524994775515
0.29936827982103453
0.29410902073450684
0.2887738751588349
0.2833619803308407
0.2778724575157081
0.2723044116278128
0.2666569309502589
0.2609290867282411
0.25511993287519474
0.24922850553619325
0.24325382278019292
0.23719488413069767
0.23105067024359405
0.224820142401997
0.21850224217919234
0.21209589089423486
0.20559998925953038
0.1990134167933698
0.19233503145172337
0.18556366899345123
0.1786981425959322
0.17173724216819197
0.16467973395005053
0.1575243597678534
0.1502698366169054
0.14291485585384156
0.13545808276223603
0.1278981556749238
0.12023368552279456
0.11246325487957176
0.10458541749396433
0.09659869724846992
0.08850158767526894
0.08029255081955478
0.07197001673980585
0.06353238226493618
0.054978010479888706
0.04630522936451831
0.0375123312658161
0.02859757140486363
0.019559167337442784
0.010395297313593344
0.0011040997289093468
-0.008316328680848084
-0.017867933394813296
-0.02755270409727051
-0.03737267523535337
-0.047329928216811146
-0.05742659196569666
-0.0676648453534372
-0.07804691774674466
-0.08857509170141631
-0.09925170349537438
-0.11007914611880998
-0.12105986978367245
-0.13219638524861277
-0.1434912642943651
0.5552095874324559
0.555174405010539
0.5550969989902317
0.5549793691105034
0.5548218343303277
0.5546244949578578
0.5543873826138968
0.5541104977204534
0.5537938227281727
0.5534373277973836
0.5530409735757068
0.552604712687462
0.5521284905887759
0.5516122460847662
0.5510559116545299
0.5504594136613495
0.5498226724907589
0.549145602642036
0.5484281127879427
0.5476701058128477
0.5468714788348845
0.5460321232169096
0.5451519245683821
0.5442307627408637
0.5432685118176934
0.5422650400997081
0.5412202100867601
0.5401338784565959
0.5390058960403601
0.537836107796227
0.5366243527800703
0.53537046411474
0.5340742689565607
0.5327355884607645
0.5313542377441844
0.5299300258471304
0.5284627556924761
0.5269522240441271
0.5253982214625894
0.5238005322600987
0.5221589344526867
0.5204731997119827
0.5187430933137452
0.5169683740863095
0.5151487943555163
0.5132840998897493
0.511374029841165
0.5094183166872427
0.5074166861681966
0.505368857224944
0.5032745419325578
0.5011334454345442
0.49894526587217536
0.4967096943149534
0.49442641468564685
0.4920951036868032
0.489715430721293
0.48728705781472326
0.4848096395312732
0.4822828228918489
0.4797062472849737
0.4770795443805137
0.4744023380353648
0.47167424420256576
0.46889487083150216
0.4660638177722105
0.46318067666979446
0.46024503086371216
0.4572564552760736
0.45421451630568954
0.4511187717098881
0.4479687704930937
0.44476405278177034
0.44150414970728025
0.43818858327352905
0.43481686623384197
0.43138850195084566
0.42790298426708484
0.42435979735663665
0.4207584155891737
0.41709830337275944
0.4133789150110513
0.4095996945366752
0.40576007556124405
0.40185948109865566
0.3978973234075842
0.3938730038039868
0.3897859124957108
0.38563542838342124
0.3814209188869503
0.37714173973379106
0.3727972347767926
0.3683867357692794
0.363909562173686
0.35936502092226763
0.35475240621624826
0.35007099927098984
0.3453200681052099
0.34049886726936485
0.3356066376244774
0.33064260605236084
0.3256059852235865
0.32049597328803636
0.3153117536315194
0.31005249454499173
0.3047173489693198
0.2993054541413256
0.293815931326193
0.2882478854382977
0.2826004047607438
0.276872560538726
0.27106340668567963
0.26517197934667813
0.2591972965906778
0.25313835794118256
0.24699414405407893
0.24076361621248188
0.23444571598967723
0.22803936470471975
0.22154346307001527
0.2149568906038547
0.20827850526220826
0.2015071428039361
0.19464161640641708
0.18768071597867686
0.18062320776053542
0.17346783357833828
0.1662133104273903
0.15885832966432645
0.15140155657272092
0.14384162948540868
0.13617715933327945
0.12840672869005665
0.12052889130444921
0.11254217105895481
0.10444506148575383
0.09623602463003966
0.08791349055029074
0.07947585607542107
0.0709214842903736
0.062248703175003195
0.05345580507630099
0.04454104521534852
0.03550264114792767
0.02633877112407823
0.017047573539394234
0.007627145129636803
-0.0019244595843284085
-0.011609230286785621
-0.021429201424868483
-0.03138645440632626
-0.04148311815521177
-0.05172137154295231
-0.06210344393625977
-0.07263161789093142
-0.08330822968488949
-0.09413567230832509
-0.10511639597318756
-0.11625291143812788
-0.1275477904838802
0.567964366480844
0.5679291840589272
0.5678517780386199
0.5677341481588916
0.5675766133787159
0.567379274006246
0.5671421616622849
0.5668652767688416
0.5665486017765609
0.5661921068457718
0.565795752624095
0.5653594917358502
0.5648832696371641
0.5643670251331544
0.5638106907029181
0.5632141927097377
0.5625774515391471
0.5619003816904242
0.5611828918363309
0.5604248848612359
0.5596262578832727
0.5587869022652978
0.5579067036167703
0.5569855417892519
0.5560232908660816
0.5550198191480963
0.5539749891351483
0.5528886575049841
0.5517606750887483
0.5505908868446152
0.5493791318284584
0.5481252431631282
0.5468290480049489
0.5454903675091527
0.5441090167925726