/*--------------------------------*- C++ -*----------------------------------*\
| =========                 |                                                 |
| \\      /  F ield         | OpenFOAM: The Open Source CFD Toolbox           |
|  \\    /   O peration     | Version:  2406                                  |
|   \\  /    A nd           | Website:  www.openfoam.com                      |
|    \\/     M anipulation  |                                                 |
\*---------------------------------------------------------------------------*/
FoamFile
{
    version     2.0;
    format      ascii;
    arch        "LSB;label=32;scalar=64";
    class       volScalarField;
    location    "178500.00000589207";
    object      n1;
}
// * * * * * * * * * * * * * * * * * * * * * * * * * * * * * * * * * * * * * //

dimensions      [0 0 0 0 0 0 0];

internalField   nonuniform List<scalar> 
30000
(
1.5328970236127645865
1.5326593452243748583
1.5325807451728810094
1.5325480019366983786
1.5325313644910620869
1.5325216131883629966
1.5325153315212298732
1.5325110160166732776
1.5325079167355446508
1.5325056126919895938
1.5325038567682502944
1.5325024880919961845
1.5325014048498306618
1.532500532919574443
1.5324998244282665993
1.5324992405217199298
1.5324987567773831199
1.5324983507133922433
1.5324980092787037211
1.5324977183621721899
1.532497470886470925
1.5324972573503818918
1.532497074010674698
1.5324969140609452367
1.5324967757082799125
1.5324966538013577999
1.5324965477301863981
1.5324964534039822173
1.5324963709504622056
1.5324962969840074667
1.5324962321019142131
1.5324961734033495375
1.5324961217883672493
1.5324960746999132244
1.5324960332343227076
1.5324959950852490298
1.5324959614759925408
1.5324959302880190037
1.5324959028254949711
1.5324958771141423686
1.5324958545080749062
1.5324958331463693906
1.5324958144119056325
1.532495796535129795
1.5324957809130472786
1.5324957658511528802
1.5324957527505507215
1.5324957399796379498
1.5324957289365228608
1.5324957180433642634
1.5324957086904733572
1.5324956993467027111
1.5324956913911316203
1.5324956833337270989
1.5324956765401593906
1.5324956695570417509
1.5324956637351212496
1.5324956576541406417
1.5324956526489317277
1.5324956473294426562
1.5324956430140985741
1.5324956383405363702
1.532495634610553159
1.5324956304874646218
1.5324956272562808568
1.5324956236043465463
1.5324956207999240743
1.5324956175528854363
1.5324956151149458083
1.5324956122172994633
1.5324956100952136229
1.5324956075001587852
1.5324956056512117897
1.5324956033191605709
1.5324956017071378334
1.5324955996044717921
1.5324955981985655118
1.5324955962965796097
1.5324955950705321239
1.5324955933446557932
1.5324955922759195825
1.5324955907050634707
1.5324955897743095523
1.5324955883402850976
1.532495587530879666
1.5324955862179938659
1.5324955855155280027
1.5324955843101739639
1.5324955837021223548
1.5324955825924795327
1.5324955820679673213
1.5324955810437639325
1.5324955805933515585
1.5324955796456349866
1.5324955792610699401
1.5324955783819314004
1.5324955780560192142
1.5324955772385533415
1.5324955769649521997
1.5324955762031231554
1.5324955759762501906
1.5324955752647295704
1.5324955750797408793
1.5324955744138273328
1.5324955742663668445
1.5324955736419136887
1.5324955735282002056
1.5324955729414919681
1.5324955728581897141
1.5324955723059576762
1.5324955722501250044
1.5324955717294701518
1.5324955716984534071
1.532495571206842655
1.5324955711983407891
1.5324955707334702026
1.5324955707453984388
1.5324955703051925671
1.5324955703357354686
1.5324955699183673286
1.5324955699659017494
1.5324955695697513036
1.532495569632824628
1.5324955692564443677
1.5324955693337680707
1.5324955689758705812
1.5324955690662909191
1.5324955687257251213
1.5324955688282084765
1.5324955685039454156
1.5324955686176044978
1.5324955683087047031
1.5324955684327603578
1.5324955681383771733
1.5324955682721088657
1.5324955679915162055
1.5324955681343075398
1.5324955678668439329
1.5324955680181149287
1.532495567763216382
1.5324955679224698812
1.5324955676795948278
1.5324955678464136088
1.5324955676151124084
1.5324955677891030081
1.5324955675689615475
1.5324955677498137696
1.5324955675404601241
1.5324955677278717658
1.5324955675290232726
1.5324955677232334761
1.5324955675328848503
1.5324955677365583728
1.5324955675531000132
1.5324955677669618304
1.5324955675906690722
1.5324955678150600225
1.5324955676462248544
1.5324955678815117555
1.5324955677204969984
1.5324955679671110609
1.5324955678143470372
1.5324955680727736507
1.5324955679287279864
1.5324955681994956169
1.5324955680647005529
1.5324955683484298152
1.532495568223489979
1.5324955685208669909
1.5324955684064538453
1.5324955687182495456
1.5324955686151318091
1.5324955689422188332
1.5324955688512473806
1.5324955691945900682
1.5324955691167567728
1.5324955694774280435
1.5324955694138326923
1.5324955697930269238
1.5324955697448963132
1.5324955701439699762
1.5324955701127060959
1.5324955705331717581
1.5324955705203018308
1.5324955709638832246
1.532495570971137866
1.5324955714397372475
1.5324955714690911002
1.5324955719648598595
1.5324955720185267083
1.5324955725438986764
1.5324955726243205678
1.532495573182035109
1.5324955732920015894
1.5324955738851191445
1.5324955740278238814
1.5324955746597490602
1.532495574838807384
1.5324955755134281876
1.5324955757329215
1.5324955764546650538
1.5324955767191226208
1.5324955774929942542
1.5324955778076645441
1.5324955786393177348
1.5324955790101575381
1.5324955799060298034
1.5324955803398159215
1.5324955813072338451
1.5324955818117178552
1.532495582859079386
1.532495583443116649
1.5324955845800032339
1.532495585253724979
1.5324955864911877779
1.5324955872662087142
1.5324955886169053798
1.5324955895066920686
1.5324955909852173708
1.5324955920052221181
1.5324955936284703206
1.5324955947966649727
1.5324955965841782213
1.532495597921449626
1.5324955998959408632
1.5324956014266903903
1.532495603614671742
1.5324956053673073342
1.5324956077998410642
1.5324956098077311406
1.5324956125212909619
1.5324956148237651732
1.5324956178613400315
1.5324956205049218294
1.5324956239174591932
1.5324956269573168921
1.53249563080542206
1.5324956343074203069
1.5324956386635177896
1.5324956427065896669
1.5324956476576141462
1.53249565233684093
1.5324956579877224705
1.532495663418216747
1.5324956698963225765
1.5324956762181731751
1.5324956836789724868
1.5324956910637885787
1.5324956996981720092
1.5324957083574497485
1.5324957184013729972
1.5324957285974420973
1.5324957403445518267
1.5324957524050450974
1.5324957662233125166
1.5324957805606989059
1.5324957969149044512
1.5324958140522086936
1.5324958335342475646
1.5324958541405020451
1.5324958775106398701
1.5324959024495052873
1.5324959306936845049
1.5324959610908588381
1.5324959955006600687
1.5324960328391923348
1.5324960751256699876
1.5324961213823431461
1.5324961738400564304
1.5324962316838630638
1.5324962974323783627
1.5324963705192107266
1.5324964538648195855
1.5324965472842704273
1.5324966542756381926
1.5324967752460041392
1.5324969145497138179
1.5324970735299969782
1.5324972578548095026
1.5324974703849509883
1.5324977188836006459
1.5324980087532962258
1.5324983512532681651
1.5324987562242655681
1.5324992410818985
1.5324998238424758501
1.5325005335022692243
1.5325014042248032986
1.532502488699960308
1.5325038560947945587
1.5325056133287227045
1.53250791599994729
1.5325110166871125372
1.5325153307005681125
1.5325216138999315785
1.5325313635409281154
1.5325480027035702779
1.532580743991647898
1.5326593461039663691
1.5328970219915469819
1.4402495858826724895
1.4400346096689033981
1.4399193231462932285
1.4398552721057515935
1.439817230232703249
1.4397930828955864957
1.4397768618302122512
1.4397654614301542697
1.4397571536728661634
1.4397509251175490963
1.4397461434287301962
1.4397424032532586402
1.4397394284000712972
1.4397370315622470827
1.4397350757133158261
1.4397334650890398766
1.4397321249376020535
1.4397310026447700526
1.439730054286235239
1.4397292494355560244
1.4397285606593250851
1.4397279697329778969
1.4397274586034987109
1.4397270161227344598
1.4397266298465836165
1.4397262929102230267
1.4397259963654898129
1.4397257360323303388
1.4397255052197719394
1.4397253014793756076
1.4397251196228124659
1.4397249583449431842
1.4397248134851363677
1.43972468450777491
1.4397245679723384981
1.4397244638691208962
1.4397243692733159293
1.4397242845390347821
1.439724207118613819
1.4397241376198706142
1.4397240737763534746
1.4397240163735134377
1.4397239633586269569
1.4397239156417218631
1.4397238713352324968
1.4397238314362286182
1.4397237941869827083
1.4397237606447252922
1.4397237291556823635
1.4397237008177754536
1.4397236740617171957
1.439723650012009637
1.4397236271692304133
1.4397236066740217719
1.439723587085647738
1.4397235695533208144
1.4397235526862055544
1.4397235376364589943
1.4397235230564278119
1.4397235100970620092
1.4397234974483583692
1.4397234862571366421
1.4397234752465961627
1.4397234655573063478
1.439723455942135466
1.4397234475336795345
1.4397234391117426089
1.4397234317996521202
1.4397234244017644844
1.4397234180313287499
1.4397234115153336731
1.4397234059562429298
1.4397234002021386257
1.4397233953442467591
1.4397233902503456804
1.4397233860001481531
1.4397233814799454965
1.4397233777577438385
1.439723373737395562
1.4397233704750702632
1.439723366891281886
1.4397233640304443192
1.4397233608288424467
1.4397233583192143858
1.4397233554529367261
1.4397233532511775067
1.4397233506797448843
1.4397233487483260816
1.4397233464366350209
1.4397233447430466402
1.4397233426606730333
1.4397233411766237055
1.4397233392970292254
1.4397233379978977563
1.4397233362979222626
1.4397233351622220621
1.4397233336216521682
1.4397233326305884926
1.4397233312317532228
1.4397233303688370398
1.4397233290962283547
1.4397233283470241005
1.439723327186991142
1.4397233265387989753
1.4397233254793659896
1.4397233249210561468
1.4397233239516220582
1.4397233234734081453
1.4397233225846686189
1.4397233221778658052
1.4397233213615987513
1.4397233210186006769
1.4397233202675632224
1.4397233199816417137
1.4397233192894487441
1.4397233190546623316
1.4397233184155819874
1.4397233182266813145
1.4397233176356758477
1.4397233174880128548
1.4397233169406631337
1.4397233168301333261
1.4397233163225049424
1.4397233162454958766
1.4397233157741105014
1.4397233157274267334
1.4397233152892412456
1.4397233152700672498
1.4397233148623707066
1.4397233148682286874
1.4397233144886207867
1.4397233145173378155
1.439723314163721124
1.4397233142133938344
1.4397233138839042876
1.4397233139528762269
1.4397233136459255398
1.4397233137327221097
1.4397233134469040738
1.4397233135502749413
1.4397233132843680892
1.4397233134032532131
1.4397233131562026109
1.4397233132896809504
1.4397233130605879836
1.4397233132078723905
1.4397233129959736697
1.4397233131564313169
1.4397233129611117786
1.4397233131341893309
1.4397233129544795283
1.4397233131415148044
1.4397233129749185121
1.4397233131779196835
1.439723313024534157
1.4397233132440585557
1.4397233131044928633
1.4397233133412379313
1.4397233132161986191
1.4397233134709903624
1.4397233133613160927
1.439723313635129287
1.4397233135418152639
1.4397233138357790061
1.4397233137600058406
1.4397233140754199798
1.4397233140185643485
1.4397233143569039271
1.4397233143205221406
1.4397233146835222151
1.4397233146693901862
1.4397233150590083017
1.439723315069169729
1.4397233154876496464
1.4397233155244482106
1.4397233159743132447
1.4397233160403888341
1.4397233165245031383
1.4397233166228815548
1.4397233171444898669
1.4397233172785837141
1.4397233178413657573
1.4397233180150281751
1.4397233186231641611
1.4397233188407525528
1.4397233194989651484
1.4397233197654244474
1.4397233204790322869
1.4397233207999684534
1.4397233215749958291
1.439723321956740687
1.4397233228000005933
1.4397233232497352873
1.4397233241689506578
1.4397233246947886975
1.4397233256987131966
1.4397233263098689893
1.43972332740839426
1.4397233281153862805
1.4397233293197226889
1.439723330134437651
1.4397233314573658625
1.4397233323933453786
1.4397233338494273003
1.4397233349220524001
1.439723336527869213
1.4397233377547682398
1.4397233395292130531
1.4397233409304737162
1.4397233428951481393
1.4397233444937675984
1.4397233466734240537
1.4397233484958209537
1.4397233509188269718
1.4397233529953445963
1.439723355694420448
1.4397233580599346769
1.4397233610727715458
1.4397233637676047913
1.4397233671377274167
1.4397233702085510121
1.4397233739864088164
1.4397233774874214074
1.4397233817316059667
1.4397233857259026379
1.4397233905047412961
1.4397233950659702462
1.4397234004593766343
1.4397234056737737706
1.4397234117755131066
1.4397234177445381587
1.4397234246649690537
1.4397234315083726752
1.4397234393780398154
1.4397234472377165027
1.4397234562116147938
1.4397234652564274704
1.4397234755193386579
1.439723485951121873
1.4397234977245052523
1.4397235097856690977
1.4397235233361160844
1.439723537319406832
1.4397235529695799894
1.4397235692302576826
1.4397235873728615463
1.4397236063446372523
1.4397236274604094941
1.4397236496759122648
1.4397236743570389628
1.4397237004745608857
1.4397237294553082432
1.4397237602939607637
1.4397237944911052132
1.4397238310774633785
1.4397238716440892148
1.439723915274432553
1.4397239636724710188
1.4397240159971300688
1.4397240740955254967
1.4397241372337779008
1.4397242074435461223
1.4397242841425752502
1.4397243696042614225
1.4397244634614405623
1.4397245683096171476
1.439724684087897888
1.4397248138289224784
1.4397249579115471985
1.4397251199733316351
1.4397253010311179544
1.4397255055772952836
1.4397257355676635893
1.4397259967303142059
1.4397262924274158991
1.4397266302190954157
1.4397270156197714552
1.4397274589841106973
1.4397279692074322899
1.4397285610483889773
1.4397292488846376024
1.4397300546841333979
1.4397310020651061802
1.4397321253447297185
1.4397334644765196199
1.4397350761300133914
1.4397370309117558662
1.4397394288267044704
1.4397424025584575347
1.439746143865715533
1.4397509243707029558
1.4397571541203575407
1.4397654606215750661
1.4397768622878301947
1.4397930820141497943
1.4398172306983076929
1.4398552711456578113
1.4399193236151326403
1.4400346086831743442
1.440249586392281067
1.3596068993731456054
1.359454435508002268
1.3593502293593433539
1.3592814664148036297
1.3592356489589119128
1.3592043043751058651
1.3591822041173107216
1.3591661621150816774
1.3591542157908367283
1.3591451168006398742
1.3591380546611717683
1.3591324807162596944
1.3591280205345983578
1.3591244054949040976
1.3591214455705442621
1.3591189970756241134
1.3591169562403535576
1.3591152405162658656
1.359113789969064845
1.3591125543071198578
1.359111497415761205
1.3591105870970814351
1.3591098009013833359
1.3591091173045115603
1.3591085220524179444
1.3591080001878603767
1.3591075425561274237
1.3591071383868185141
1.3591067817966469011
1.359106464767765754
1.3591061835701259142
1.3591059320446920999
1.359105707909414873
1.3591055062907295703
1.3591053258980061447
1.3591051627658816692
1.3591050162928131062
1.3591048831676852959
1.3591047632737258688
1.3591046537800086647
1.3591045549140630122
1.3591044642030862821
1.3591043821210675446
1.3591043064669556806
1.3591042378916320388
1.3591041744034826344
1.3591041167806772183
1.3591040631953854589
1.3591040145171473519
1.3591039690482833446
1.3591039277233891713
1.3591038889497526476
1.3591038537076904902
1.359103820490348502
1.3591037903094123074
1.3591037617292311968
1.3591037357822861598
1.3591037110927599585
1.3591036887059231297
1.359103667296940543
1.359103647917887292
1.3591036292878933001
1.3591036124613715685
1.359103596195858632
1.3591035815445851043
1.3591035672990852134
1.3591035545088177017
1.3591035419956807306
1.3591035308034091766
1.35910351978135302
1.3591035099660002672
1.359103500231673145
1.3591034916066029314
1.3591034829879589108
1.3591034753949198244
1.3591034677458644353
1.3591034610502192859
1.3591034542461284396
1.3591034483328927607
1.3591034422671999238
1.3591034370378503038
1.3591034316190389042
1.3591034269889303854
1.3591034221382121139
1.3591034180343724014
1.3591034136837336632
1.3591034100430590126
1.3591034061336186856
1.3591034029013975282
1.3591033993820589298
1.3591033965107963688
1.3591033933370473274
1.3591033907854377372
1.3591033879184699629
1.3591033856503704769
1.3591033830563667983
1.3591033810402142201
1.3591033786894941571
1.3591033768976139573
1.3591033747641791951
1.3591033731722781397
1.3591033712332805106
1.3591033698200480906
1.3591033680553537
1.3591033668020200409
1.3591033651939112836
1.3591033640839542684
1.359103362616762567
1.3591033616355705504
1.3591033602954885051
1.3591033594301829002
1.3591033582049880657
1.3591033574441908627
1.3591033563230929815
1.3591033556567151397
1.359103354630162741
1.3591033540492645226
1.3591033531086849084
1.359103352605334436
1.3591033517431962974
1.3591033513104073815
1.3591033505200438292
1.3591033501516134319
1.3591033494270556847
1.3591033491174753234
1.3591033484534895681
1.3591033481978611608
1.359103347589805999
1.3591033473838070034
1.3591033468275519613
1.3591033466673605457
1.3591033461592456622
1.3591033460414909673
1.3591033455782806083
1.3591033454999992269
1.3591033450788474468
1.3591033450374281344
1.3591033446558207221
1.3591033446489733105
1.3591033443047206841
1.3591033443304303407
1.3591033440216337969
1.3591033440781481456
1.3591033438031261404
1.3591033438889685847
1.3591033436462591766
1.3591033437601602873
1.3591033435485264658
1.3591033436893791286
1.3591033435077854996
1.3591033436750967756
1.3591033435213246694
1.3591033437173838383
1.3591033435905495175
1.3591033438166797431
1.3591033437178083876
1.3591033439751449841
1.3591033439054245324
1.3591033441952693472
1.3591033441561037876
1.359103344480021347
1.3591033444730389323
1.3591033448328029287
1.3591033448598619504
1.3591033452575240759
1.3591033453207963522
1.359103345758682746
1.3591033458606232021
1.3591033463413972893
1.3591033464847988022
1.3591033470114863846
1.3591033471995446202
1.3591033477755849468
1.3591033480118759336
1.3591033486411303599
1.3591033489297330572
1.3591033496165794148
1.3591033499621241187
1.359103350711482916
1.3591033511191661365
1.359103351936590709
1.3591033524122773102
1.3591033533040686176
1.3591033538543590975
1.3591033548275743836
1.3591033554599523114
1.3591033565225867363
1.3591033572454691569
1.3591033584065346229
1.3591033592294159416
1.3591033604991025197
1.3591033614327152623
1.3591033628224853391
1.359103363878946924
1.3591033654017767862
1.35910336659484976
1.3591033682654112269
1.3591033696106540329
1.3591033714455622583
1.359103372960619005
1.3591033749787191365
1.3591033766836384533
1.3591033789063546866
1.3591033808238814906
1.3591033832755645694
1.3591033854316110219
1.3591033881400200745
1.3591033905641731749
1.3591033935610019601
1.3591033962870155971
1.3591033996084549429
1.3591034026749702068
1.3591034063625309081
1.359103409813892771
1.359103413915230929
1.3591034178024083978
1.3591034223723723606
1.3591034267540806901
1.3591034318558987692
1.359103436800026099
1.3591034425068642122
1.359103448091997457
1.3591034544886835267
1.35910346080609723
1.3591034679913807093
1.3591034751475432607
1.3591034832365658236
1.3591034913558646124
1.3591035004834686184
1.3591035097117687425
1.3591035200364498525
1.3591035305455179127
1.3591035422541912769
1.3591035542470950581
1.3591035675610902977
1.3591035812788712089
1.3591035964614766041
1.3591036121914368273
1.359103629557244064
1.359103647643473245
1.3591036675700858272
1.3591036884267808649
1.3591037113698429817
1.3591037354981334584
1.359103762010376748
1.3591037900198910116
1.3591038207756531708
1.3591038534124511017
1.3591038892393421111
1.3591039274220220179
1.3591039693422897194
1.3591040142092052356
1.3591040634940056986
1.359104116465640999
1.35910417470683198
1.359104237568952378
1.3591043067751904516
1.3591043817900980706
1.3591044645164629401
1.3591045545741180511
1.3591046540987472557
1.359104762924149723
1.3591048834920504973
1.3591050159326278912
1.3591051630960999663
1.3591053255261602573
1.3591055066268569185
1.3591057075244075136
1.3591059323866025998
1.3591061831702460072
1.3591064651152993115
1.3591067813799149189
1.3591071387398603321
1.3591075421203215878
1.3591080005463136438
1.3591085215948919274
1.3591091176681628916
1.3591098004188770787
1.3591105874656166375
1.3591114969043200933
1.3591125546800588708
1.3591137894238043415
1.3591152408928128814
1.3591169556550619646
1.3591189974549207076
1.3591214449372832629
1.3591244058758824576
1.3591280198429522841
1.3591324810977873927
1.3591380538973061309
1.3591451171819703969
1.3591542149357997982
1.3591661624975182043
1.3591822031451659125
1.3592043047673523226
1.3592356478373248674
1.359281466852901854
1.3593502280710374475
1.3594544361345779482
1.3596068980482172162
1.289065873070960766
1.2889591701768803311
1.2888752454333776143
1.2888129912189858484
1.2887676218322072774
1.2887344709927182063
1.2887099505335284366
1.2886915262053297848
1.2886774502170688095
1.2886665263005818716
1.2886579224901204554
1.2886510577312424441
1.2886455138578196689
1.2886409906994245045
1.2886372636826970428
1.2886341679647450587
1.2886315753048482868
1.288629390295542354
1.288627535686733605
1.2886259538354414289
1.2886245960103632768
1.2886234261739739626
1.2886224123214611303
1.288621531320397251
1.2886207613835580776
1.2886200873738480333
1.288619493967545715
1.2886189711376301315
1.2886185077744995997
1.2886180972048477678
1.2886177311402520207
1.2886174051588132894
1.2886171129053860529
1.2886168514991211964
1.2886166159374314866
1.2886164044121073413
1.2886162128847968855
1.2886160403044655265
1.2886158833323502204
1.288615741458356112
1.2886156118593838915
1.2886154944156074098
1.2886153866898979459
1.2886152888462911736
1.2886151987406213593
1.2886151167447164045
1.2886150409399206307
1.2886149718507675654
1.2886149077345090408
1.2886148492282298861
1.2886147947281729742
1.2886147449542588728
1.2886146984141011451
1.2886146558883098123
1.2886146159749061191
1.2886145794986516577
1.2886145451318242738
1.2886145137308950837
1.2886144840299496028
1.288614456907722694
1.2886144311502756299
1.2886144076515082535
1.2886143852417413225
1.2886143648245838023
1.2886143452684282185
1.288614327482446642
1.2886143103681977351
1.2886142948371037686
1.2886142798199726744
1.2886142662279822524
1.288614253018024236
1.2886142410989842588
1.2886142294512230588
1.2886142189799036917
1.2886142086865994827
1.2886141994716329151
1.2886141903560397459
1.288614182234216976
1.288614174145327862
1.2886141669770565521
1.2886141597853666418
1.2886141534508597228
1.2886141470450707125
1.2886141414411804718
1.2886141357253582118
1.2886141307630631925
1.2886141256541960853
1.2886141212563999581
1.2886141166825755278
1.2886141127823986796
1.2886141086811686574
1.288614105220416306
1.2886141015373628882
1.2886140984653344788
1.2886140951529596599
1.2886140924253484119
1.2886140894421711511
1.2886140870202171804
1.2886140843298712344
1.2886140821796152611
1.288614079750191932
1.288614077841835126
1.2886140756452917344
1.2886140739526315002
1.2886140719642953378
1.2886140704642774502
1.2886140686623863694
1.2886140673346899721
1.288614065700088851
1.2886140645267687432
1.2886140630425511056
1.2886140620077626284
1.2886140606589970847
1.2886140597487696358
1.2886140585222274346
1.288614057724221329
1.2886140566081432102
1.2886140559113834492
1.2886140548954254648
1.2886140542902086992
1.2886140533652117313
1.2886140528429843588
1.2886140520008226851
1.2886140515540083218
1.2886140507875081251
1.2886140504093970272
1.2886140497122027249
1.2886140493969007181
1.2886140487633843676
1.2886140485056742921
1.2886140479308831885
1.2886140477261522896
1.2886140472057303619
1.2886140470499354294
1.2886140465800295374
1.2886140464696322905
1.2886140460468866742
1.2886140459787893686
1.2886140456002754817
1.2886140455717558506
1.2886140452349286178
1.2886140452436698478
1.2886140449463114876
1.28861404499030896
1.2886140447305101109
1.2886140448080540821
1.2886140445842146907
1.2886140446938658677
1.2886140445046443403
1.2886140446452116759
1.2886140444891078793
1.2886140446612754928
1.2886140445360991791
1.288614044742114606
1.2886140446486236133
1.2886140448896912236
1.2886140448292067173
1.2886140451067837898
1.2886140450808780678
1.2886140453967238617
1.2886140454072361194
1.2886140457634047696
1.2886140458125197039
1.2886140462113779837
1.288614046301616467
1.2886140467458890857
1.2886140468801416947
1.2886140473729810196
1.2886140475545670991
1.2886140480995713631
1.2886140483322647832
1.2886140489335262682
1.2886140492216495712
1.288614049883811008
1.2886140502322882551
1.2886140509606054394
1.2886140513750108383
1.2886140521754396726
1.288614052662073739
1.28861405354136771
1.2886140541073485277
1.2886140550731490784
1.2886140557265262085
1.2886140567874551088
1.2886140575373399297
1.2886140587031384985
1.2886140595598258862
1.2886140608414957676
1.2886140618166359584
1.2886140632266318562
1.2886140643333607869
1.2886140658857476726
1.2886140671389714196
1.288614068849628147
1.2886140702661919022
1.2886140721531422759
1.2886140737521274424
1.2886140758357707004
1.2886140776388419482
1.2886140799423166925
1.2886140819740647956
1.2886140845236697672
1.2886140868120306013
1.2886140896376661047
1.2886140922144722065
1.2886140953501630246
1.2886140982516853803
1.2886141017362575667
1.2886141050039332523
1.2886141088817941736
1.2886141125629619886
1.2886141168849394312
1.2886141210339188135
1.2886141258582997082
1.2886141305374456678
1.2886141359312368593
1.2886141412122960048
1.2886141472527452567
1.2886141532185859671
1.2886141599948739422
1.2886141667412611689
1.2886141743567061102
1.288614181994768515
1.2886141905693446752
1.2886141992284212421
1.2886142089018972623
1.2886142187328604169
1.2886142296685620945
1.2886142408479821508
1.288614253237475582
1.2886142659728423432
1.2886142800415631982
1.2886142945776477564
1.2886143105919618534
1.2886143272184886754
1.2886143454944241071
1.2886143645558965076
1.2886143854699585454
1.2886144073778369457
1.2886144313807528228
1.2886144566287309754
1.2886144842627205165
1.2886145134462922979
1.288614545366922437
1.2886145792080496708
1.2886146162123894854
1.2886146555913462475
1.2886146986539761539
1.2886147446505191727
1.2886147949704487292
1.2886148489172377651
1.288614907979180435
1.2886149715320196485
1.2886150411869579102
1.2886151164176644635
1.2886151989900498371
1.288615288510315704
1.288615386941766916
1.2886154940700449423
1.2886156121137060104
1.2886157411024548036
1.288615883589219191
1.2886160399374158025
1.2886162131442140399
1.2886164040330121416
1.2886166161993048984
1.2886168511067550568
1.2886171131693238134
1.2886174047515410734
1.2886177314057176702
1.2886180967807621123
1.2886185080409036097
1.2886189706947359657
1.2886194942341921976
1.2886200869098620725
1.2886207616496381245
1.2886215308326323115
1.2886224125859184753
1.2886234256592550285
1.2886245962717630675
1.2886259532899997371
1.2886275359432719512
1.2886293897149252441
1.2886315755541932759
1.2886341673436885191
1.2886372639217993363
1.2886409900317408184
1.2886455140826944543
1.2886510570098785866
1.2886579226958954081
1.2886665255183555878
1.2886774503978897233
1.288691525357019918
1.2887099506838546326
1.288734470082389727
1.2887676219531885025
1.2888129902837195395
1.2888752455578338374
1.288959169360388346
1.2890658733460376162
1.2270393365759464377
1.2269627510694127714
1.2268971819622727093
1.2268444298024636652
1.2268032477787329526
1.2267714417433583929
1.2267468751147012629
1.2267277823044229201
1.2267128120046697504
1.2267009529876093943
1.2266914635368617592
1.2266837925896170169
1.226677535146520448
1.226672384468598942
1.22666811237259199
1.2266645411264740506
1.2266615370819164976
1.2266589927624103051
1.2266568269563691285
1.2266549720005930357
1.2266533769485696848
1.2266519976093097632
1.2266508011708046055
1.2266497577931161356
1.2266488459017605983
1.2266480447214107574
1.226647339850041929
1.2266467164057246464
1.2266461646839164068
1.2266456737338542471
1.2266452369972582481
1.2266448462062677915
1.2266444969512502183
1.2266441828332397268
1.2266439009351126632
1.2266436461840393157
1.2266434167149053991
1.2266432084121674517
1.2266430201614477724
1.2266428485493325873
1.2266426930029670217
1.2266425506313882732
1.2266424212559230433
1.2266423023799677416
1.2266421941137175544
1.2266420942622746626
1.226642003148801674
1.2266419188121688855
1.2266418417330573476
1.2266417701339502599
1.2266417046122026768
1.226641643536199977
1.2266415875896530263
1.226641535258561122
1.2266414872901547639
1.2266414422663265427
1.2266414009807742325
1.2266413620944880414
1.2266413264347491019
1.2266412927285594847
1.2266412618269022516
1.2266412325125457539
1.2266412056527211671
1.2266411800778329599
1.2266411566654533694
1.2266411342872534096
1.2266411138266528624
1.2266410941914114296
1.2266410762672703694
1.2266410589938809839
1.2266410432567111943
1.2266410280237771691
1.2266410141781840526
1.2266410007134780358
1.2266409885088205289
1.2266409765809451748
1.2266409658037951136
1.2266409552153099138
1.2266409456832332303
1.2266409362651262693
1.2266409278217462742
1.2266409194288008244
1.2266409119395904614
1.2266409044467430078
1.2266408977956844151
1.2266408910949340161
1.226640885181627505
1.2266408791794363164
1.2266408739168346287
1.2266408685319125649
1.2266408638444172841
1.2266408590060307038
1.2266408548277865087
1.2266408504742387642
1.2266408467477034616
1.2266408428250912266
1.2266408394999830378
1.2266408359611011836
1.2266408329933029542
1.2266408297967488217
1.2266408271475597314
1.2266408242570041587
1.2266408218923938733
1.2266408192758053719
1.2266408171658407245
1.2266408147950216279
1.2266408129133279381
1.2266408107633657298
1.226640809086632089
1.2266408071355465736
1.2266408056432391849
1.2266408038715965745
1.2266408025455133313
1.226640800936144915
1.2266407997602077895
1.226640798297889301
1.2266407972578181607
1.2266407959290313023
1.2266407950122191206
1.2266407938050034598
1.2266407930002480864
1.2266407919039963303
1.2266407912014178905
1.226640790206710685
1.2266407895975277587
1.2266407886960599694
1.22664078817248412
1.2266407873568718756
1.2266407869120352636