/*--------------------------------*- C++ -*----------------------------------*\
| =========                 |                                                 |
| \\      /  F ield         | OpenFOAM: The Open Source CFD Toolbox           |
|  \\    /   O peration     | Version:  2406                                  |
|   \\  /    A nd           | Website:  www.openfoam.com                      |
|    \\/     M anipulation  |                                                 |
\*---------------------------------------------------------------------------*/
FoamFile
{
    version     2.0;
    format      ascii;
    arch        "LSB;label=32;scalar=64";
    class       volScalarField;
    location    "178500.00000589207";
    object      n2;
}
// * * * * * * * * * * * * * * * * * * * * * * * * * * * * * * * * * * * * * //

dimensions      [0 0 0 0 0 0 0];

internalField   nonuniform List<scalar> 
30000
(
0.16308988142680125311
0.16311518092901550192
0.16312353833161144512
0.16312703169511150181
0.16312879453060757928
0.16312984065810903767
0.16313050125986644501
0.16313096873595647751
0.16313129063918657691
0.16313154395480342074
0.16313172291177704953
0.1631318766116402752
0.16313198401128484183
0.16313208478629770415
0.16313215234040109869
0.16313222241023342396
0.16313226608421063646
0.16313231717937701215
0.1631323457463475235
0.16313238454267331434
0.1631324031473160574
0.16313243366712351645
0.16313244548193117645
0.16313247026006669205
0.16313247732138683177
0.16313249801439427822
0.16313250167276477365
0.16313251939618020336
0.16313252057201158007
0.1631325360962618265
0.16313253543142258728
0.16313254930020798517
0.16313254725123368938
0.16313255985550026428
0.16313255675273161116
0.16313256837824285927
0.16313256446433307967
0.16313257532304634156
0.16313257077865017663
0.16313258102985328524
0.16313257599109018403
0.16313258575592459731
0.1631325803264795371
0.16313258969807831189
0.16313258395773347353
0.16313259300841648214
0.16313258701912536353
0.16313259580557529227
0.16313258961585819229
0.16313259818287226266
0.16313259183103981376
0.16313260021432440805
0.16313259373086166915
0.16313260195906792438
0.16313259536840626907
0.16313260346469796169
0.16313259678654845608
0.16313260476976754187
0.16313259802014917765
0.163132605905710798
0.1631325990977263718
0.16313260689831238226
0.16313260004274371395
0.16313260776884330738
0.16313260087461750603
0.16313260853493780078
0.16313260160949658029
0.1631326092112912185
0.16313260226087447635
0.16313260981021818208
0.16313260284009331591
0.16313261034207715561
0.16313260335672197243
0.16313261081562549504
0.16313260381886263151
0.16313261123828920462
0.16313260423341099936
0.16313261161639044938
0.16313260460625428339
0.16313261195534081716
0.16313260494243136955
0.16313261225977518376
0.16313260524628170334
0.16313261253368538384
0.16313260552154751348
0.16313261278052385017
0.16313260577146568298
0.16313261300327416836
0.16313260599883891433
0.16313261320452557279
0.16313260620611086393
0.16313261338653417543
0.16313260639541304897
0.16313261355127298136
0.16313260656861236497
0.16313261370046228116
0.16313260672734405943
0.16313261383561683537
0.16313260687303501872
0.16313261395806485932
0.16313260700695028649
0.16313261406897433536
0.1631326071302073577
0.16313261416938454329
0.16313260724378514377
0.16313261426020242428
0.1631326073485586392
0.16313261434223888524
0.16313260744529906043
0.16313261441621243475
0.16313260753469419062
0.16313261448276655807
0.16313260761734918458
0.16313261454246591464
0.16313260769381210391
0.1631326145958212348
0.16313260776456411927
0.1631326146432854618
0.16313260783004102095
0.1631326146852644654
0.16313260789062977718
0.16313261472212289838
0.16313260794667561182
0.16313261475418733282
0.16313260799848824933
0.16313261478175289376
0.16313260804634691081
0.16313261480508295387
0.16313260809049903721
0.16313261482441393513
0.16313260813117164139
0.16313261483995955547
0.16313260816856547941
0.16313261485191396516
0.16313260820285771513
0.16313261486045088633
0.16313260823421121826
0.1631326148657289421
0.16313260826276990145
0.16313261486788896426
0.16313260828866391061
0.16313261486705721293
0.1631326083120095416
0.16313261486335117745
0.16313260833290965657
0.1631326148568722767
0.16313260835145759753
0.16313261484771568455
0.16313260836773399443
0.16313261483596472323
0.16313260836679882582
0.16313261486694924374
0.16313260831795875494
0.16313261491131297864
0.16313260826595385455
0.16313261495398168055
0.16313260821069058837
0.16313261499487491379
0.16313260815207042409
0.16313261503390932838
0.1631326080899834774
0.16313261507098714143
0.16313260802430953889
0.16313261510599880166
0.16313260795491496546
0.16313261513881868736
0.16313260788165215298
0.16313261516930865902
0.16313260780435828723
0.16313261519731420135
0.1631326077228516247
0.1631326152226598436
0.16313260763693654409
0.16313261524515140777
0.16313260754638997385
0.16313261526457309425
0.16313260745096913595
0.163132615280682014
0.16313260735040269189
0.16313261529320419174
0.16313260724439168636
0.16313261530183761905
0.16313260713260421819
0.16313261530624029172
0.1631326070146685292
0.16313261530603256899
0.16313260689017233807
0.16313261530078557171
0.16313260675865631777
0.16313261529002390238
0.16313260661960549136
0.16313261527320793709
0.16313260647244551271
0.16313261524973518557
0.16313260631652803934
0.16313261521892991057
0.16313260615112656904
0.1631326151800240043
0.16313260597542489361
0.16313261513215468468
0.16313260578850938276
0.16313261507433829411
0.16313260558933259659
0.16313261500547385219
0.16313260537671786521
0.16313261492430239374
0.1631326051493334206
0.16313261482939897529
0.16313260490565742455
0.16313261471913384493
0.16313260464396184268
0.16313261459165245837
0.16313260436227169925
0.16313261444482868301
0.16313260405832624711
0.16313261427622532951
0.16313260372952226307
0.16313261408304408073
0.16313260337287296964
0.16313261386204908066
0.16313260298492146538
0.16313261360950850887
0.1631326025616688935
0.16313261332109432744
0.16313260209846627835
0.16313261299176926022
0.16313260158990605664
0.16313261261564687699
0.16313260102965479459
0.16313261218584598766
0.16313260041028013192
0.163132611694267321
0.1631325997230198277
0.16313261113135044122
0.16313259895751316964
0.16313261048575639078
0.1631325981014381532
0.16313260974399340641
0.16313259714009159529
0.16313260888991806818
0.16313259605583005363
0.16313260790412045798
0.163132594827382571
0.16313260676314175757
0.16313259342896466175
0.16313260543846599959
0.16313259182913417145
0.16313260389523803751
0.16313258998932847477
0.16313260209058363936
0.16313258786195480865
0.16313259997142059987
0.16313258538787450691
0.16313259747156494406
0.16313258249306208936
0.16313259450790743021
0.1631325790841962331
0.1631325909752422143
0.16313257504264547237
0.16313258673929587061
0.16313257021630056531
0.16313258162715255084
0.16313256440834694727
0.16313257541398193395
0.16313255736152412756
0.16313256780437082605
0.163132548735894084
0.1631325584057089495
0.16313253807684352514
0.16313254668956145288
0.1631325247682752777
0.16313253193463903012
0.16313250796271153154
0.16313251314067642173
0.16313248647459985263
0.16313248889535875152
0.16313245861311281848
0.16313245716271024266
0.16313242191218935151
0.16313241493561142503
0.16313237267896649185
0.16313235764281175388
0.16313230520613228314
0.16313227808942412644
0.16313221032674807276
0.16313216445483277872
0.16313207259193776566
0.16313199623524968218
0.16313186430587836573
0.16313173524532692538
0.16313153153726911437
0.16313130308192541618
0.16313095620656947737
0.16313051381046378419
0.16312982801730963045
0.16312880718557490334
0.1631270189446150376
0.16312355108174453333
0.16311516807667525431
0.1630898942516129102
0.17358103088218684862
0.17360693316900147054
0.17362084370684793821
0.17362855637287827326
0.17363315454983249686
0.17363605595917952495
0.1736380228057179953
0.17363938713482890419
0.17364039959340010766
0.17364114028963259506
0.1736417274225606211
0.17364216809595420243
0.17364253723915587524
0.17364281597967659576
0.17364306214765684588
0.17364324614429116345
0.17364341797855975535
0.17364354315564323183
0.17364366766163671918
0.17364375462782430382
0.17364384775242491799
0.17364390899109638511
0.17364398061777933102
0.17364402402462808528
0.17364408052213761713
0.17364411126991272094
0.1736441568756451892
0.1736441784534621946
0.17364421606331212344
0.17364423088322261668
0.17364426252189282818
0.17364427228678874782
0.17364429939795919533
0.17364430533218566666
0.17364432896307691045
0.17364433196110898305
0.17364435288295984594
0.17364435360758789795
0.17364437239615632125
0.17364437134477780922
0.17364438843517146505
0.17364438598538051162
0.17364440171010209202
0.17364439815155513491
0.17364441276731221175
0.17364440832435334983
0.17364442203122376629
0.1736444168791563547
0.17364442983446939928
0.17364442411142491651
0.17364443643991350763
0.17364443025556433597
0.17364444205689458234
0.17364443549895269836
0.17364444685333879637
0.17364443999243625583
0.17364445096488886899
0.17364444385825314465
0.17364445450180426844
0.17364444719610269696
0.17364445755428153939
0.17364445008777346091
0.17364446019651152975
0.17364445260073174682
0.1736444624898715039
0.17364445479094220426
0.17364446448539247458
0.17364445670506542529
0.17364446622570964274
0.17364445838216743812
0.17364446774661146389
0.17364445985511586801
0.17364446907825872857
0.17364446115168194473
0.17364447024618478999
0.17364446229542274125
0.17364447127208715305
0.17364446330638871885
0.17364447217447234739
0.17364446420171525398
0.17364447296916660224
0.17364446499608879315
0.17364447366976182296
0.17364446570213332155
0.17364447428795365402
0.17364446633073568615
0.17364447483384679027
0.1736444668913127154
0.17364447531617804854
0.17364446739201869208
0.17364447574253949469
0.17364446783994741397
0.17364447611952685269
0.17364446824126783531
0.17364447645288275113
0.17364446860136625861
0.173644476747627452
0.17364446892494947439
0.17364447700815666131
0.17364446921613641006
0.17364447723831491488
0.17364446947854797476
0.17364447744147779029
0.17364446971535466013
0.17364447762061185898
0.17364446992935031466
0.17364447777832522912
0.1736444701229943044
0.17364447791692125267
0.17364447029845256343
0.17364447803842505968
0.17364447045763511945
0.17364447814462299902
0.17364447060222912289
0.1736444782370920592
0.17364447073371935826
0.17364447831722715221
0.17364447085342915589
0.17364447838626256848
0.17364447096251880986
0.17364447844528865805
0.17364447106201691406
0.17364447849526506995
0.17364447115283035417
0.1736444785370414301
0.17364447123576062793
0.17364447857136938724
0.17364447131151461434
0.17364447859891102288
0.17364447138071439913
0.17364447862024387503
0.17364447144390549038
0.17364447863587936793
0.17364447150156986366
0.17364447864626489371
0.1736444715541243522
0.17364447865179569175
0.17364447160193505204
0.17364447865280671635
0.17364447164531832124
0.17364447864959450807
0.17364447168455052206
0.17364447864241228103
0.17364447171986277518
0.17364447863147705609
0.17364447175145308888
0.17364447861697052122
0.17364447177948921786
0.17364447859904197369
0.17364447180410241822
0.17364447859357026727
0.17364447177799630095
0.17364447863250609405
0.17364447173224017984
0.17364447866862081638
0.17364447168245808473
0.1736444787017868141
0.17364447162849666606
0.17364447873184518656
0.17364447157016502099
0.17364447875860222759
0.17364447150724299229
0.17364447878183003615
0.17364447143947006613
0.17364447880126346324
0.17364447136654476145
0.17364447881659267336
0.17364447128812024457
0.17364447882745606688
0.17364447120380038792
0.17364447883344041879
0.17364447111312839023
0.1736444788340709422
0.17364447101558996844
0.17364447882880904017
0.1736444709105946782
0.17364447881703795606
0.17364447079747502567
0.17364447879806049757
0.17364447067547605918
0.17364447877107969109
0.17364447054374146373
0.17364447873519428533
0.1736444704013037077
0.17364447868938304165
0.17364447024706558542
0.17364447863249046766
0.17364447007978958681
0.17364447856320611163
0.17364446989807219568
0.17364447848004757602
0.17364446970032790252
0.17364447838133256763
0.17364446948476419674
0.17364447826515974627
0.1736444692493465114
0.17364447812936784077
0.17364446899176719241
0.17364447797150633912
0.17364446870940786205
0.17364447778878830397
0.17364446839929484345
0.17364447757804743477
0.17364446805804767404
0.17364447733566965026
0.17364446768181032721
0.17364447705754845752
0.17364446726618687489
0.17364447673898322777
0.17364446680614942231
0.17364447637458779727
0.17364446629594129656
0.1736444759582014552
0.17364446572895667065
0.17364447548273742594
0.17364446509761005677
0.17364447494004564554
0.17364446439314987214
0.17364447432071900002
0.17364446360546617609
0.17364447361387524982
0.17364446272285438688
0.17364447280689723763
0.17364446173171529941
0.17364447188510401254
0.17364446061621441331
0.17364447083136316796
0.17364445935784086905
0.17364446962563317989
0.17364445793489263759
0.17364446824436641226
0.17364445632182551327
0.17364446665979593742
0.17364445448846888009
0.17364446483905696117
0.17364445239903258944
0.17364446274308784068
0.17364445001087316922
0.17364446032523661589
0.17364444727295932913
0.17364445752954241198
0.17364444412390669936
0.17364445428854188846
0.17364444048951874211
0.17364445052044605311
0.17364443627959427752
0.17364444612556750869
0.17364443138386179144
0.17364444098166509356
0.17364442566667920298
0.1736444349378966634
0.17364441896011231781
0.1736444278068865199
0.17364441105481787098
0.17364441935423347019
0.1736444016879303831
0.17364440928447083534
0.17364439052681032716
0.1736443972222168064
0.17364437714703323534
0.17364438268640969287
0.17364436100223273884
0.17364436505489339035
0.17364434138230608329
0.17364434351496504938
0.17364431735475055474
0.17364431699347079863
0.17364428768101483613
0.17364428405635415342
0.17364425069539168867
0.17364424276191917085
0.17364420412630740542
0.17364419044211093501
0.17364414482718090738
0.17364412336930942771
0.17364406836126772271
0.17364403623553742451
0.17364396834355916299
0.17364392131424177812
0.17364383536390362583
0.17364376706388856553
0.17364365515787472116
0.1736435557052344314
0.17364340535862357595
0.1736432588079244721
0.17364304941061803333
0.17364282875774414427
0.17364252438410163193
0.17364218098867892359
0.17364171444860626581
0.17364115329702753399
0.17364038649966803685
0.17363940025659885258
0.17363800959132913437
0.17363606919469662393
0.17363314121382969479
0.17362856972172896475
0.17362083024827235089
0.17360694663622275313
0.17358101730553004982
0.18387667454165521064
0.18389730353674380026
0.1839113939795352648
0.18392070468936508321
0.18392689744163687182
0.18393114600123858238
0.18393412984729162751
0.18393630778598710207
0.18393791765927605675
0.18393915602481558658
0.18394010496824828027
0.18394086626516892302
0.1839414631079886453
0.18394195927472795082
0.18394235310381940041
0.1839426913725946966
0.18394296083506295192
0.18394319991256313784
0.18394338950325495041
0.18394356359276284318
0.18394369992003478664
0.18394382996363287108
0.18394392966561357028
0.1839440290133399214
0.18394410288071919024
0.18394418033086346043
0.1839442355776881588
0.18394429709274320861
0.18394433866705586778
0.18394438838470542064
0.18394441975549327695
0.18394446060633745654
0.18394448425223111632
0.18394451834920835798
0.18394453607089325531
0.1839445649615267242
0.18394457808659353537
0.18394460292026440507
0.18394461244047100035
0.18394463408165206975
0.18394464074677033261
0.18394465985312175027
0.18394466423615271622
0.18394468131325591997
0.18394468385650872277
0.18394469929678275433
0.18394470034485441157
0.18394471445561572098
0.18394471427929615093
0.18394472730322150578
0.18394472611702950005
0.18394473824724183464
0.1839447362224226612
0.18394474761372564542
0.18394474488797277201
0.18394475566529364108
0.18394475235007753944
0.18394476261488176827
0.18394475880104016463
0.18394476863622827301
0.18394476439824844483
0.18394477387192545437
0.1839447692712549709
0.183944778439673301
0.18394477352729537989
0.18394478243712433785
0.18394477725557459302
0.18394478594571275765
0.183944780530673202
0.18394478903367161848
0.18394478341523315401
0.1839447917584274006
0.1839447859620982062
0.18394479416852377307
0.18394478821602272545
0.18394479630514870561
0.18394479021506757177
0.18394479820337869547
0.18394479199170776784
0.18394479989320774993
0.18394479357376319895
0.18394480140035063265
0.18394479498512816829
0.18394480274693442157
0.18394479624639606397
0.18394480395205375922
0.18394479737536398312
0.1839448050322281536
0.18394479838745292355
0.18394480600179180518
0.18394479929606455393
0.18394480687320546863
0.18394480011286526433
0.18394480765733592365
0.1839448008480346064
0.18394480836367951837
0.18394480151048486771
0.18394480900054693828
0.18394480210801542053
0.18394480957522771347
0.18394480264747617437
0.18394481009411892125
0.18394480313489622314
0.18394481056285835741
0.18394480357558326555
0.18394481098641451977
0.18394480397421789086
0.183944811369171346
0.18394480433493212712
0.18394481171500451366
0.18394480466138249386
0.18394481202734999647
0.18394480495680715082
0.1839448123092427001
0.1839448052240682252
0.18394481256337430475
0.18394480546571592705
0.18394481279214278113
0.18394480568400473075
0.18394481299767528881
0.18394480588094416773
0.18394481318186134411
0.1839448060583141753
0.1839448133463786883
0.18394480621769665474
0.18394481349272431836
0.18394480636049675981
0.18394481362222786514
0.18394480648796224243
0.18394481373606613728
0.18394480660120238191
0.18394481383529134866
0.18394480670119955912
0.18394481392083417148
0.18394480678882227376
0.18394481399352183293
0.1839448068648417145
0.18394481405408619201
0.18394480692993778193
0.183944814103173232
0.18394480698470389024
0.18394481414135341324
0.18394480702966603536
0.18394481416912467076
0.18394480706527727154
0.18394481418692348873
0.18394480709193417045
0.18394481419512850873
0.18394480710997709871
0.18394481419406821798
0.18394480710323787842
0.1839448142337043457
0.18394480703784588105
0.18394481428208978024
0.18394480696255915975
0.18394481432248871444
0.1839448068770433431
0.18394481435456913609
0.18394480678091545967
0.18394481437794196754
0.18394480667373203087
0.18394481439215648599
0.18394480655498599009
0.1839448143966967153
0.18394480642410190874
0.18394481439097132291
0.18394480628042580994
0.18394481437430929005
0.18394480612321917334
0.18394481434594789349
0.18394480595164838799
0.1839448143050220752
0.18394480576477967304
0.18394481425055581036
0.1839448055615512112
0.18394481418145006146
0.18394480534077620182
0.18394481409646215586
0.18394480510111901883
0.18394481399419382317
0.1839448048410808334
0.18394481387306840792
0.18394480455897321836
0.18394481373131188473
0.18394480425290021808
0.18394481356692596319
0.18394480392072978803
0.18394481337765983264
0.18394480356006229216
0.18394481316097563428
0.18394480316819489252
0.18394481291401337808
0.18394480274208055426
0.18394481263354053868
0.18394480227827861296
0.18394481231591247594
0.18394480177290370437
0.18394481195699888265
0.18394480122156667279
0.18394481155213046608
0.18394480061929027737
0.18394481109600430147
0.183944799960430172
0.18394481058259920525
0.18394479923857776082
0.18394481000507192925
0.18394479844643768507
0.183944809355628347
0.18394479757569318079
0.18394480862537032628
0.18394479661684393079
0.18394480780411512355
0.18394479555901585566
0.18394480688020767301
0.1839447943897390414
0.18394480584025379999
0.18394479309467501316
0.18394480466883789127
0.18394479165728849779
0.18394480334817012168
0.18394479005848415887
0.1839448018576622379
0.18394478827612628646
0.18394480017342185185
0.18394478628448529545
0.18394479826764417729
0.1839447840535684553
0.18394479610784969514
0.18394478154828472483
0.18394479365599031295
0.18394477872744277591
0.18394479086731127526
0.18394477554249502593
0.18394478768898225862
0.18394477193600475284
0.1839447840583657845
0.18394476783973634504
0.18394477990088256569
0.18394476317224794926
0.18394477512733034552
0.18394475783587305173
0.18394476963048364548
0.18394475171291349569
0.18394476328079067962
0.18394474466076912722
0.18394475592086428906
0.18394473650569359569
0.18394474735840823931
0.18394472703474420983
0.18394473735702218664
0.18394471598529865686
0.18394472562421165795
0.18394470303130516786
0.18394471179560673013
0.18394468776510694563
0.18394469541401009538
0.18394466967323508388
0.18394467590130750279
0.18394464810377311736
0.18394465252047495496
0.18394462222197749401
0.18394462432362349014
0.18394459094926712828
0.18394459008007607581
0.18394455287821598333
0.1839445481755882239
0.18394450615258836623
0.18394449646900487561
0.18394444829541234387
0.1839444320852034187
0.18394437595847012989
0.18394435111051590792
0.18394428455018785318
0.1839442481356829695
0.18394416767097673815
0.18394411555398709757
0.18394401623510858723
0.18394394245482661998
0.18394381706604617799
0.18394371282579949356
0.18394355057481803772
0.18394340252608862296
0.18394318677325779965
0.18394297397534423166
0.18394267811096876031
0.18394236636174474131
0.18394194588986673145
0.18394147648350819835
0.18394085275625515763
0.18394011846094501794
0.18393914239123412835
0.1839379312681962142
0.18393629402760552916
0.18393414357075449361
0.18393113211916950478
0.18392691127735857903
0.18392069068854899339
0.18391140792721047403
0.18389728943543362516
0.18387668861842410006
0.19393889350481927081
0.19395493426788423807
0.19396757752480534021
0.1939769330377785761
0.19398377553755197233
0.19398875180737384927
0.19399245652569299669
0.19399521645797032643
0.19399734897997653049
0.1939989800337605097
0.19400028871081911874
0.19400130883949984195
0.19400215676478654858
0.19400282450453304461
0.19400339880061454045
0.19400385176268147847
0.19400425517192215752
0.19400457114377669954
0.19400486332746574858
0.1940050886077154535
0.1940053058882057202
0.19400546925159262157
0.19400563463501757644
0.19400575462489813572
0.19400588317562345031
0.19400597211249553942
0.19400607397626792872
0.19400614026155130198
0.19400622243804199751
0.19400627193007763394
0.19400633935002140062
0.19400637621385136145
0.194006432414308011
0.194006459661928643
0.19400650722124948566
0.19400652706390511537
0.19400656788867251534
0.19400658197176059994
0.1940066174900736129
0.19400662705294050014
0.194006658347065708
0.19400666433360969076
0.19400669223255651019
0.19400669536898287881
0.19400672051405515317
0.19400672136433702586
0.19400674425620986763
0.1940067432621595811
0.19400676429506960585
0.19400676180561579609
0.19400678129250767401
0.19400677758531126305
0.19400679577648000107
0.19400679107406987312
0.19400680817114038246
0.19400680265306163852
0.19400681881955944563
0.19400681263158231493
0.19400682800099677827
0.19400682126218121715
0.19400683594413975497
0.19400682875226490931
0.19400684283733579671
0.19400683527312784227
0.19400684883654611967
0.19400684096697604075
0.19400685407158013707
0.19400684595246203701
0.19400685865098887817
0.19400685032903794425
0.19400686266597508278
0.19400685418044757991
0.19400686619347976003
0.19400685757749011606
0.19400686929868887765
0.19400686058025998215
0.19400687203703800843
0.19400686323995525173
0.19400687445583641999
0.19400686560035282358
0.19400687659558593645
0.19400686769899122552
0.19400687849109057859
0.19400686956817159157
0.19400688017233461147
0.19400687123576929038
0.1940068816652170125
0.19400687272589020593
0.19400688299217422328
0.19400687405944952446
0.1940068841726989568
0.19400687525462684269
0.19400688522374567868
0.19400687632726376641
0.19400688616009661991
0.19400687729119045488
0.19400688699468057741
0.19400687815850733986
0.19400688773881144544
0.19400687893981752308
0.19400688840241156474
0.1940068796444317234
0.19400688899419801792
0.19400688028052784362
0.19400688952183908764
0.19400688085531450633
0.19400688999208565155
0.19400688137513411036
0.19400689041089499987
0.19400688184559075622
0.19400689078352559291
0.19400688227163090382
0.19400689111461821845
0.19400688265762947027
0.19400689140827501178
0.19400688300745386194
0.1940068916681294553
0.19400688332453108753
0.19400689189740383256
0.19400688361189188935
0.19400689209894261822
0.19400688387222472797
0.1940068922752665459
0.19400688410790631333
0.19400689242860691408
0.19400688432104160053
0.19400689256093553436
0.19400688451349318298
0.1940068926739984545
0.19400688468690718835
0.19400689276933827387
0.1940068848427336512
0.19400689284831226789
0.19400688498225585055
0.19400689291211395404
0.19400688510659847008
0.19400689296179318699
0.1940068852167486646
0.19400689299827053591
0.19400688531356488631
0.19400689302234114253
0.19400688539780241992
0.19400689303469978442
0.19400688547010813689
0.19400689303594115254
0.19400688553103442868
0.19400689302657292412
0.19400688558105516623
0.19400689300702400608
0.19400688562056569997
0.19400689299476134297
0.19400688559848938697
0.19400689302422882698
0.19400688554882700165
0.19400689304383872402
0.19400688548832822899
0.19400689305320306666
0.19400688541655711217
0.19400689305185306321
0.19400688533300000649
0.19400689303924045781
0.19400688523705311717
0.19400689301472620607
0.1940068851280190021
0.19400689297756679164
0.19400688500508922463
0.19400689292690573295
0.19400688486734177229
0.19400689286176200921
0.19400688471371987931
0.19400689278101640456
0.19400688454301895369
0.19400689268339504912
0.19400688435387461461
0.19400689256745340394
0.19400688414473693522
0.19400689243155344599
0.19400688391385581544
0.19400689227383891011
0.19400688365925078394
0.19400689209220930986
0.19400688337868246536
0.19400689188429590115
0.1940068830696229929
0.19400689164741957704
0.19400688272921801092
0.19400689137855589572
0.19400688235424345951
0.19400689107428786828
0.19400688194106172069
0.19400689073074908753
0.19400688148555558787
0.19400689034357784801
0.19400688098307294904
0.19400688990783049315
0.19400688042835279035
0.19400688941791141562
0.19400687981542885652
0.19400688886748229667
0.19400687913753994485
0.194006888249343451
0.19400687838701330401
0.19400688755532324858
0.19400687755512394106
0.19400688677612157318
0.19400687663193913468
0.19400688590114034682
0.19400687560613263938
0.19400688491828987914
0.19400687446477643539
0.19400688381373915048
0.19400687319307549639
0.19400688257165943362
0.19400687177406519823
0.19400688117387579479
0.19400687018824916419
0.19400687959947623962
0.19400686841318171005
0.1940068778243626002
0.19400686642295500439
0.19400687582066397652
0.19400686418757581708
0.19400687355608786655
0.19400686167223271661
0.19400687099310284789
0.19400685883641397012
0.19400686808793790594
0.1940068556327959326
0.1940068647893999354
0.19400685200594369739
0.19400686103739855914
0.19400684789066005576
0.19400685676114340361
0.1940068432099964213
0.19400685187689889477
0.19400683787274761172
0.19400684628521405739
0.1940068317703446954
0.19400683986744371445
0.19400682477298133999
0.19400683248137531867
0.19400681672468705896
0.19400682395573048966
0.19400680743710790876
0.19400681408309652931
0.19400679668155254576
0.1940068026109371957
0.19400678417874800408
0.19400678922995573394
0.19400676958561574592
0.19400677355897941179
0.19400675247799645251
0.19400675512518905652
0.1940067323279191791
0.19400673333797835429
0.19400670847351450532
0.19400670745417478158
0.1940066800787227097
0.19400667653128514378
0.19400664607887688207
0.19400663936401693621
0.1940066051064643915
0.19400659439715170484
0.19400655538857680682
0.19400653960452807212
0.19400649460358221354
0.194006472318690254
0.19400641967798418208
0.19400638898763927775
0.19400632649395646578
0.19400628482175516498
0.19400620946113036891
0.19400615327195594451
0.19400606087737642946
0.19400598524242226861
0.19400586995360183384
0.19400576787508871934
0.19400562128869477951
0.19400548262273795141
0.19400529241637082256
0.1940051021004402243
0.19400484972888817903
0.1940045847586237826
0.19400424144533368054
0.19400386550009565689
0.1940033849446900216
0.19400283836485102129
0.19400214277814081809
0.19400132282294282882
0.19400027459202620617
0.19399899414051754998
0.19399733472759675412
0.19399523068844065632
0.19399244213846078555
0.19398876616302035414
0.19398376101520364845
0.19397694752395183704
0.19396756287105765271
0.1939549489026809459
0.19393887873685608514
0.20374244671430075115
0.20375516983731037368
0.20376605364237820872
0.20377482096329330163
0.20378165589950583692
0.2037869449869418037
0.20379102050343289587
0.20379419801445244897
0.20379667955509184196
0.20379865543502320713
0.20380022650758369829
0.20380150664067347988
0.20380254078609139068
0.20380340221893847308
0.20380410652694549989
0.20380470555870641713
0.20380519918767495136
0.20380562761038312214
0.20380598196246554887
0.20380629586127138597
0.20380655537165948132
0.2038067902621911176
0.20380698352653300875
0.20380716261493606045
0.20380730858088694224
0.2038074474489560417
0.20380755899378227847
0.20380766835469235621
0.20380775442551626875
0.20380784179904978815
0.20380790873377338523
0.20380797949514431466
0.2038080318606879382
0.20380808991461296653
0.20380813105215508929
0.20380817927633421149
0.20380821166383300547
0.20380825220680745535
0.20380827770481085848
0.20380831218972705887
0.20380833221100455588
0.20380836187740059007
0.20380837750584990253
0.20380840330976454644
0.20380841538495245158
0.20380843807057630324
0.20380844724863494966
0.20380846740024635699
0.20380847419823530653
0.20380849227824635039
0.20380849710685339238
0.20380851348398273948
0.20380851667181537623
0.20380853164215997908
0.20380853345402635823
0.20380854725692806872
0.20380854790764582618
0.20380856073778028104
0.20380856040273848118
0.20380857241938549196
0.20380857124264722957
0.20380858257682385459
0.20380858067741780548
0.2038085914374738461
0.20380858891429493029
0.20380859919023425197
0.20380859612589721785
0.20380860599282538126
0.20380860245670651132
0.20380861197754585046
0.20380860802819208977