/*--------------------------------*- C++ -*----------------------------------*\
| =========                 |                                                 |
| \\      /  F ield         | OpenFOAM: The Open Source CFD Toolbox           |
|  \\    /   O peration     | Version:  2406                                  |
|   \\  /    A nd           | Website:  www.openfoam.com                      |
|    \\/     M anipulation  |                                                 |
\*---------------------------------------------------------------------------*/
FoamFile
{
    version     2.0;
    format      ascii;
    arch        "LSB;label=32;scalar=64";
    class       volScalarField;
    location    "178500.00000589207";
    object      p;
}
// * * * * * * * * * * * * * * * * * * * * * * * * * * * * * * * * * * * * * //

dimensions      [0 0 0 0 0 0 0];

internalField   nonuniform List<scalar> 
30000
(
5.3973682431634448872e-10
6.310484266291296541e-10
9.9685608712159795958e-10
8.7803730367469369242e-10
1.1998555111225197494e-09
1.0846935257872149585e-09
1.3846586214991324163e-09
1.2755392996492792524e-09
1.5633672213490341503e-09
1.461311031135690888e-09
1.739545612489272194e-09
1.6444788254215328217e-09
1.914296173616111447e-09
1.8260228598219286825e-09
2.0880263337993251989e-09
2.006293523856539015e-09
2.260784977458576468e-09
2.1852690065551519286e-09
2.4323687409373256244e-09
2.3627824058923465674e-09
2.6025544773051663061e-09
2.5385522221374773556e-09
2.7710391246673647308e-09
2.7122624092588876157e-09
2.937562632012542288e-09
2.8836840127964234298e-09
3.1018561409233830087e-09
3.0525807417465250761e-09
3.2636838889775226687e-09
3.2187302414737069885e-09
3.4228307856649001216e-09
3.3819322855254469095e-09
3.5791329526509930277e-09
3.5420386174947837951e-09
3.732424607957384475e-09
3.6989063285037390338e-09
3.88260271216586706e-09
3.85244370722978223e-09
4.0295706313525357245e-09
4.0025678579504215393e-09
4.1732458550100966487e-09
4.149203436432413986e-09
4.3135911591742396444e-09
4.2923357107934967882e-09
4.4505620075406088637e-09
4.4319109788702537527e-09
4.5841102698254110893e-09
4.5678883514907431656e-09
4.7142202691776646443e-09
4.7002958725082246151e-09
4.840911771043586582e-09
4.8291122014019900365e-09
4.964152860631417968e-09
4.9543466265547514307e-09
5.0839641207295576241e-09
5.0760091057830163792e-09
5.2003587081086071329e-09
5.1941283251469147374e-09
5.3133592173324014427e-09
5.3087234112922835268e-09
5.4229726190421041994e-09
5.4198126435710022898e-09
5.5292277904583062647e-09
5.5274253978125130021e-09
5.6321470061085213152e-09
5.6315904679634310949e-09
5.7317578642283628772e-09
5.7323535891313892473e-09
5.8281115619940098248e-09
5.8297491073390981299e-09
5.9212288829409333497e-09
5.9238122696839905556e-09
6.011142851118530235e-09
6.0145762359498089038e-09
6.0978864602581757562e-09
6.1020792664348349537e-09
6.1815001984792688381e-09
6.1863686631657507301e-09
6.262010613351037699e-09
6.2674758364293305735e-09
6.3394740620788969097e-09
6.3454612246965265652e-09
6.4139303261082393154e-09
6.4203669579483446828e-09
6.4854110666267010619e-09
6.4922159197288007357e-09
6.5539420428156684204e-09
6.5610576686886050697e-09
6.6195873174601778525e-09
6.6269586629191264433e-09
6.682397642788171316e-09
6.6899595347528909814e-09
6.7423997391780218177e-09
6.7500830130998385505e-09
6.7996280940507237163e-09
6.807396335891005243e-09
6.8541416252431966544e-09
6.8619430266804704753e-09
6.9059844496749576635e-09
6.9137735170087579122e-09
6.9552075779115124569e-09
6.9629349568036035418e-09
7.0018317934052526869e-09
7.009457694944878832e-09
7.0459215844171701254e-09
7.0534099984820263267e-09
7.0875197607478838855e-09
7.0948398901899996675e-09
7.126677335964719098e-09
7.133790682288113263e-09
7.1634261852993283417e-09
7.17030674848445625e-09
7.197827784379892584e-09
7.2044395713675598586e-09
7.2299072269089838075e-09
7.2362284455694662292e-09
7.2597247871302385887e-09
7.2657349869903806739e-09
7.2873264546311385838e-09
7.2930025964278837468e-09
7.3127558746574672105e-09
7.3180782085010136013e-09
7.3360605720019345083e-09
7.3410110454317349968e-09
7.3572840717166696255e-09
7.3618443623724506419e-09
7.3764675269145590576e-09
7.3806259646464966057e-09
7.393664173283806168e-09
7.3974069077849564046e-09
7.4089133666452504577e-09
7.4122268700785470743e-09
7.4222548952770406496e-09
7.4251366411350284795e-09
7.4337489414927699738e-09
7.4361852290645648041e-09
7.4434262500774599363e-09
7.4454155114277441111e-09
7.4513461704952032733e-09
7.4528847071639187344e-09
7.4575616657417216003e-09
7.4586596902864195923e-09
7.4621371930689560163e-09
7.4627997968472600881e-09
7.4651428265326058236e-09
7.4653739082386008632e-09
7.4666047908746953973e-09
7.4663526455922353292e-09
7.4663830588726330631e-09
7.4650587918269740218e-09
7.4620831274302397919e-09
7.4574291251650176655e-09
7.4514166691717351123e-09
7.4456358405968794915e-09
7.4383595025265311484e-09
7.432031860350540161e-09
7.4235877671626015436e-09
7.4167755543829189755e-09
7.407142589552989821e-09
7.399843682340085074e-09
7.3889571439328771327e-09
7.3811523557449800973e-09
7.368947841817812702e-09
7.3606349236419460006e-09
7.3470625352643610116e-09
7.3382429635308647366e-09
7.3232429047932925794e-09
7.3139175624167481568e-09
7.2974371124403450681e-09
7.2876174670528851453e-09
7.2696047521143361657e-09
7.2592973333133015592e-09
7.2396925688241908012e-09
7.2289101777567229734e-09
7.2076547994047607309e-09
7.196403965467326304e-09
7.1734365839955094818e-09
7.1617342977487439691e-09
7.1369991878778180676e-09
7.1248645285731931207e-09
7.0982920274847233032e-09
7.0857338754471602827e-09
7.0572620524433293198e-09
7.044306105971316799e-09
7.013864861251354438e-09
7.0005345151976427831e-09
6.9680593595648124929e-09
6.9543754839383771451e-09
6.9197889016728170798e-09
6.9057706687972505558e-09
6.869001154484976294e-09
6.8546843201338187595e-09
6.8156550960586189062e-09
6.8010684128880449812e-09
6.7596975563445763993e-09
6.7448735241824444419e-09
6.701088830671437006e-09
6.686063090943361315e-09
6.6397727070548643654e-09
6.6245698560210021427e-09
6.5756910837764160748e-09
6.5603758006821125192e-09
6.5088229727031717138e-09
6.4934275554534831062e-09
6.4391088645407380722e-09
6.4236785207602492045e-09
6.3664975457754069753e-09
6.3510875847239889905e-09
6.2909571264545622325e-09
6.2756180980026798713e-09
6.2124306596566988125e-09
6.1972174331313089142e-09
6.1308825418881344307e-09
6.1158566295325421346e-09
6.0462636700903779361e-09
6.0314969082679373506e-09
5.958543005596010544e-09
5.944087104450438285e-09
5.8676666268577963953e-09
5.8536150413786103596e-09
5.7736180811146162507e-09
5.7600376902026887625e-09
5.6763490132756286932e-09
5.6633251844824236612e-09
5.5758329767591723336e-09
5.5634367453313067712e-09
5.472023034318963452e-09
5.4603604533465681247e-09
5.3649015280732481415e-09
5.3540579470267023743e-09
5.2544333628717470204e-09
5.2445141913342977174e-09
5.1406054851000852793e-09
5.1317057812514184634e-09
5.0233850253996601983e-09
5.0156297066866860031e-09
4.9027737249338978934e-09
4.896271023098614111e-09
4.7787464700255028642e-09
4.7736171273649799059e-09
4.6512976182654535427e-09
4.647665234028506883e-09
4.5204150779683008915e-09
4.5184065989838624508e-09
4.3860971245003186951e-09
4.3858611044531226188e-09
4.2483595611085292481e-09
4.2500418588759491783e-09
4.1072194720276315693e-09
4.1109696167048005923e-09
3.9626888378685192346e-09
3.9686546913199328754e-09
3.8147818705190940812e-09
3.8231443475788839488e-09
3.6635556256302627857e-09
3.6744648016767815689e-09
3.509032241691014715e-09
3.5226724768984805864e-09
3.3512662501979486555e-09
3.3678337652183989069e-09
3.1903463254039883079e-09
3.2100212824462799139e-09
3.026323046289294334e-09
3.0493226596738644311e-09
2.8593241231732887442e-09
2.8858582402481527541e-09
2.6894480562415933155e-09
2.7197435478176955602e-09
2.5168676042285546071e-09
2.5511762954142470995e-09
2.3417557546646115539e-09
2.3803359559820229763e-09
2.1643645903443322672e-09
2.2075256589247138299e-09
1.9850047801142798243e-09
2.0330810056645134811e-09
1.8040939937732386602e-09
1.8574817824342181619e-09
1.6221875256236842518e-09
1.6813656170230076693e-09
1.4400095643969573123e-09
1.5055447188700438715e-09
1.2586150113062853233e-09
1.33132097452000137e-09
1.0795671774335251969e-09
1.1605009838595807904e-09
9.0507820416667292663e-10
9.9571725678864967993e-10
7.3847274855978196211e-10
8.4101440306913571802e-10
5.8495197381259013056e-10
7.0279984781931010653e-10
4.5306239654650995639e-10
5.918276059645008599e-10
3.5785097337244698557e-10
5.2623897330044764239e-10
3.2184658575437338196e-10
5.4174341857971389702e-10
4.5095518142045579185e-10
5.3379175691393239901e-10
2.6211869212441521781e-10
4.0883057709592745269e-10
5.6971594261954397913e-10
5.8688523463846065197e-10
7.086961737330373003e-10
7.027111357394303319e-10
8.0070433065302010319e-10
7.8649271828331604989e-10
8.7401916079859576109e-10
8.5776467051671952791e-10
9.3908309124734342748e-10
9.2306125560788585264e-10
1.0000876194850365933e-09
9.852757023383018741e-10
1.0589545169127419465e-09
1.0457532675056659388e-09
1.1165819424176986349e-09
1.105117822052645188e-09
1.1733966497600583428e-09
1.1636641807765667754e-09
1.2295424258421029748e-09
1.2214229370312415159e-09
1.2849920298695710619e-09
1.2784232814866869045e-09
1.3396816733820009999e-09
1.3345098345657590937e-09
1.393497470461169214e-09
1.3895979853456924863e-09
1.4463341587316399516e-09
1.4435617202141191521e-09
1.4980487517477842717e-09
1.4962783788306875055e-09
1.5485698335912375375e-09
1.5477002448626267e-09
1.5978105554512923485e-09
1.5977170667962055311e-09
1.6456988534214419999e-09
1.6463068705979657523e-09
1.6922112378568625421e-09
1.6934311723648569012e-09
1.7372872089273370846e-09
1.7390476594542663765e-09
1.7809273071373692111e-09
1.7831507281211081816e-09
1.8230890151797697301e-09
1.825694161470642397e-09
1.8637482165536353491e-09
1.8666923533762020012e-09
1.9029218057778653009e-09
1.9061454477674563559e-09
1.9406100415237168921e-09
1.9440572395612167857e-09
1.9768017206433432868e-09
1.9804309264832037425e-09
2.0115152463492907204e-09
2.0152737327540929696e-09
2.0447597092244073641e-09
2.0486269983075248381e-09
2.076566516902794046e-09
2.0804853526252122379e-09
2.1069283990366094058e-09
2.1108752952382200379e-09
2.1358961308471846971e-09
2.1398482300988406207e-09
2.1634803851145868665e-09
2.1674102344296424001e-09
2.1896856822861000508e-09
2.193561020913084577e-09
2.2145431915314690999e-09
2.2183433044811647666e-09
2.2380794829213487536e-09
2.2417943446172161636e-09
2.2603271838017117975e-09
2.2639276623325587269e-09
2.2812930585509959484e-09
2.2847510459189372729e-09
2.3009996166566742873e-09
2.304305614901286215e-09
2.3194671806564566399e-09
2.3226039133430203244e-09
2.3367274735301315634e-09
2.339676155536438895e-09
2.3527976503691575322e-09
2.3555547407518900328e-09
2.3677089436808388704e-09
2.3702465986373459935e-09
2.3814585294847938965e-09
2.3837804932018309907e-09
2.3941037587548897263e-09
2.3961923521504546278e-09
2.4056411578368686992e-09
2.4074855585492331503e-09
2.4160937227966311713e-09
2.4176911506685291361e-09
2.4254998531420256043e-09
2.4268435079387800531e-09
2.4338761325762041825e-09
2.4349553635977815893e-09
2.441237602351827302e-09
2.4420540448183052147e-09
2.4476174151570030519e-09
2.4481578932382568583e-09
2.4530304260960282574e-09
2.4533002384242495024e-09
2.4575042398573486809e-09
2.4574959332871265302e-09
2.4610596327269063389e-09
2.4607672719886290579e-09
2.4637109796511065778e-09
2.4631413192599760199e-09
2.465486652340085371e-09
2.4646304226924892381e-09
2.466399587703360033e-09
2.4652590638929139755e-09
2.4664709047576847421e-09
2.4650486592568759398e-09
2.465725391677071327e-09
2.464022334537505635e-09
2.4641916314184844383e-09
2.4622118158476357958e-09
2.4618836998512230082e-09
2.4596274654018454716e-09
2.4588258471016780384e-09
2.4562999837195175068e-09
2.4550452584258034272e-09
2.4522481576322866496e-09
2.450548098098736317e-09
2.447479746176915379e-09
2.4453536720899310123e-09
2.442023325326997354e-09
2.439493690811242411e-09
2.4359056344578246866e-09
2.4329852695928527205e-09
2.4291496323217477467e-09
2.4258629574933984039e-09
2.4217783158470270808e-09
2.4181322397812552444e-09
2.413814913645524045e-09
2.409837850685022346e-09
2.4052982514497256517e-09
2.4010082240643946382e-09
2.3962582983366241926e-09
2.3916857811875996025e-09
2.3867576992592947385e-09
2.381955682795914829e-09
2.3769181228235144309e-09
2.3719880878561295903e-09
2.3669630682139318615e-09
2.3620900361256905628e-09
2.3576537998100458228e-09
2.3547016723515569605e-09
2.3532177805027540715e-09
2.3521470798326557881e-09
2.3511949663220924048e-09
2.3501257759613632951e-09
2.3491331441503754784e-09
2.3478765021476182098e-09
2.3467139847656555181e-09
2.3451723376214497588e-09
2.3437798365097730892e-09
2.3419016533512850879e-09
2.3402451600818284357e-09
2.3379997766623053873e-09
2.3360615915106242693e-09
2.333423182295159117e-09
2.3311852372482959945e-09
2.3281296281632534213e-09
2.3255903966202679751e-09
2.3221045227422463657e-09
2.3192553256249956171e-09
2.3153250008031114815e-09
2.3121626910329725975e-09
2.307767555221599773e-09
2.3042802820148769707e-09
2.2993992048058551427e-09
2.2955857135486205936e-09
2.290207778713637088e-09
2.2860638290441375505e-09
2.2801674395997460853e-09
2.2756904151697911402e-09
2.2692578485023442298e-09
2.2644448500314249891e-09
2.2574577641405536045e-09
2.2523070341903669661e-09
2.244747406605165535e-09
2.2392543393304465056e-09
2.231100540581827888e-09
2.2252645537676741304e-09
2.21649571456616857e-09
2.2103165396897313427e-09
2.200912392547861146e-09
2.194390372890292416e-09
2.1843264277801285427e-09
2.1774630359276541279e-09
2.166719069366997899e-09
2.1595140354162265358e-09
2.1480729615297063057e-09
2.1405271059933492837e-09
2.1283536286006331591e-09
2.120474150883919721e-09
2.1075564069841470934e-09
2.0993521289581440675e-09
2.0856569954741506453e-09
2.0771343064161012476e-09
2.0626448161235704562e-09
2.0538018623713858793e-09
2.0384698177220772702e-09
2.029308423112182567e-09
2.0131150834948742522e-09
2.0036550825038485097e-09
1.9865809451590250081e-09
1.9768302307662571865e-09
1.9588446709543879106e-09
1.9488221959873089798e-09
1.9298825637300640467e-09
1.919586470092745742e-09
1.8996689951347349901e-09
1.889116127901495843e-09
1.8681946056247220338e-09
1.857410719401891757e-09
1.8354520244569351753e-09
1.8244471699515204428e-09
1.8014186829057362713e-09
1.7902230627828031162e-09
1.7660850163510585706e-09
1.7547080948586796307e-09
1.729432265124520824e-09
1.7179027740577342535e-09
1.6914502726844194109e-09
1.6797837543622332442e-09
1.6521188494820049459e-09
1.6403649745854107112e-09
1.6114615708941990961e-09
1.5996442064387080905e-09
1.5694597812129161582e-09
1.5576069124759863358e-09
1.5261013118711189178e-09
1.5142589254222862175e-09
1.4813937813660111041e-09
1.4695998824587075736e-09
1.4353617220156231599e-09
1.4236456385015236043e-09
1.3879710989786741571e-09
1.3763769900708246405e-09
1.3392427253711822652e-09
1.3278354597989068899e-09
1.2891990598489770908e-09
1.2780330238395780075e-09
1.2378569064387688714e-09
1.2269870204595725325e-09
1.1852295856280556598e-09
1.1747182123890116988e-09
1.1313432975155844965e-09
1.1212655748197613067e-09
1.0762355871083362223e-09
1.0666741389368940712e-09
1.0199685693894813408e-09
1.0109897451663226967e-09
9.6255569449426279305e-10
9.5426307457860784924e-10
9.0409139193953579042e-10
8.9656030651040074588e-10
8.4462807208777108194e-10
8.3799844900672474998e-10
7.8429490554428176166e-10
7.7865375906580082122e-10
7.2316512884119483652e-10
7.1867988076992909191e-10
6.6143452548450879638e-10
6.5824224027358775858e-10
5.9926330998698102199e-10
5.9755031332082803674e-10
5.3690176062733363127e-10
5.3688368804788230096e-10
4.7465405787934879331e-10
4.7659464306879984657e-10
4.1294545392516841346e-10
4.1717321134561755803e-10
3.5234080628529124087e-10
3.5927807898411984642e-10
2.9359852424360463911e-10
3.0380602970396860694e-10
2.3778373556672679215e-10
2.5198346387613055773e-10
1.8634008467181833143e-10
2.0555014865599970636e-10
1.413758987382047792e-10
1.6703070644638067408e-10
1.0594861242426493636e-10
1.400700332453701527e-10
8.4549889652340624592e-11
1.301564053585584247e-10
8.3893893741167204902e-11
1.4526441010162714893e-10
1.1383583922643947774e-10
1.9573911977839495035e-10
1.8064897188953314947e-10
2.9020049124334490003e-10
3.5491238567244339191e-10
3.7359988306213656498e-10
1.4454548263034667581e-10
2.3890348984685915017e-10
2.9550085128802772153e-10
3.162830540615598516e-10
3.4578632413917352564e-10
3.4016769299281459808e-10
3.4773815559472634972e-10
3.2963211341552234329e-10
3.2732454725876720328e-10
3.0370816998211728004e-10
2.962675182209917731e-10
2.7029825429109315519e-10
2.6009712947558010254e-10
2.3335229901885929449e-10
2.2161043869225169159e-10
1.9487710605879214631e-10
1.8226476472534938935e-10
1.5597270055884447553e-10
1.4288874874009789226e-10
1.1726158592864930219e-10
1.0390571035770793404e-10
7.9009321419988673727e-11
6.5516113745799180383e-11
4.1392173552716372019e-11
2.7806001494065800751e-11
4.4404108200057768222e-12
-9.1940369053388596477e-12
-3.1825955229758513488e-11
-4.5492719998481596136e-11
-6.743413319945633694e-11
-8.1132568556344171434e-11
-1.0243207213531074351e-10
-1.1615501095144528486e-10
-1.3684165528749263986e-10
-1.5056716387534695239e-10
-1.7068352922165357922e-10
-1.844178390684584186e-10
-2.0397530759163133155e-10
-2.1767072808169048629e-10
-2.3669910782353631551e-10
-2.5036952518686830847e-10
-2.6888029593596471374e-10
-2.8249902971379889688e-10
-3.0053094572113953905e-10
-3.1409314838550223107e-10
-3.3166729099586019071e-10
-3.4516798627280816885e-10
-3.6228823532964423635e-10
-3.7569781011988216957e-10
-3.9237895196727907015e-10
-4.0568000207618853298e-10
-4.2193247420758974137e-10
-4.3512335580548428251e-10
-4.5096548971478002302e-10
-4.6402711902480657483e-10
-4.7945510867276270178e-10
-4.9236728470779661804e-10
-5.0738865310661981642e-10
-5.2014414822451896153e-10
-5.3477156228518790202e-10
-5.4734759381690385184e-10
-5.6157106044419301345e-10
-5.7395520085676790279e-10
-5.8780127212244799796e-10
-5.9998820335730065646e-10
-6.1346286906610857409e-10
-6.2544175378673038006e-10
-6.3853910593181616159e-10
-6.5028410412381269752e-10
-6.630131644886297121e-10
-6.7451952021701723947e-10
-6.8687338128674477878e-10
-6.9814224055600007899e-10
-7.1012869275326360007e-10
-7.2115001248642973021e-10
-7.3279040436920483913e-10
-7.4355842384472344916e-10
-7.5483834274897904828e-10
-7.6534902587084669987e-10
-7.7628826107201192695e-10
-7.8652806793378674438e-10
-7.9712389789070033213e-10
-8.0709275232403362024e-10
-8.1735173494536942527e-10
-8.2705328600082733562e-10
-8.3698769265453236236e-10
-8.4641637724940884118e-10
-8.5601828841676321734e-10
-8.6516422628223783565e-10
-8.7445192410590275892e-10
-8.8332220142404827681e-10
-8.9229727561229001835e-10
-9.0089807553403717928e-10
-9.0955138197463932627e-10
-9.178664061826266019e-10
-9.2622377223029934915e-10
-9.3426952165106517173e-10
-9.4232871311110572845e-10
-9.500988716565170527e-10
-9.5786335775482576152e-10
-9.6535826557596202347e-10
-9.7283135141104796717e-10
-9.8005477453149711642e-10
-9.872349977181222466e-10
-9.9419081409298246647e-10
-1.0010930299001166566e-09
-1.0077852907364628867e-09
-1.014405470396028123e-09
-1.0208297440492080821e-09
-1.0271774778346331724e-09
-1.0333455915456899113e-09
-1.039431333527697763e-09
-1.0453487486904464577e-09
-1.0511702047615351861e-09
-1.0568312262344030106e-09
-1.0624054185413707211e-09
-1.0678242164800124375e-09
-1.0731386260293152792e-09
-1.0782980663133496609e-09
-1.083359107543253765e-09
-1.0882811072610096445e-09
-1.0931081379785291419e-09
-1.0977921242484531077e-09
-1.1023729807155815692e-09
-1.1068191155619482476e-09
-1.1111650021469986255e-09
-1.1153804646067354159e-09
-1.1195011186649006471e-09
-1.1234909039036645498e-09
-1.1273871182065737534e-09
-1.1311507297939082733e-09
-1.1348239070653096611e-09
-1.1383629445810602899e-09
-1.1418143331500357747e-09
-1.1451331936305011865e-09
-1.1483716458484679225e-09
-1.1514753208547053323e-09
-1.1545010648887543226e-09
-1.1573910824015902039e-09
-1.1602053123167478785e-09
-1.1628860417162093565e-09
-1.1654995012417108063e-09
-1.1679743445192811641e-09
-1.1703930961878056781e-09
-1.1726818155960616418e-09
-1.1749389373983152564e-09
-1.1771032767993498652e-09
-1.1793020938486276364e-09
-1.1815176480071289081e-09
-1.1840087373947120463e-09
-1.1869477741620553222e-09
-1.1903384907281631031e-09
-1.1940285309320025197e-09
-1.1977604815161658928e-09
-1.2015581825684719998e-09
-1.2052923799000986422e-09
-1.209025861260225457e-09
-1.2126555775531275614e-09
-1.2162547381571985883e-09
-1.2197457096634009445e-09
-1.223199781987433695e-09
-1.2265444108563560847e-09
-1.2298415735316616136e-09
-1.2330295029857585449e-09
-1.2361712548232472086e-09
-1.2392069107932027127e-09
-1.2421895475967250506e-09
-1.2450659978319340645e-09
-1.2478846136890492367e-09
-1.2505960223092509276e-09
-1.2532494598413298664e-09
-1.2558034464643116073e-09
-1.2582948585827560355e-09
-1.2606784546858949927e-09
-1.2629951603436371202e-09
-1.265204063113923511e-09
-1.2673488778467234929e-09
-1.2693874619209794806e-09
-1.2713569550668389058e-09
-1.273213187888984344e-09
-1.2749966269696392558e-09
-1.2766686408393098079e-09
-1.27826896043291913e-09
-1.2797442985986959618e-09
-1.2811491850513051072e-09
-1.282431630948442921e-09
-1.2836479107477665212e-09
-1.2847332788999137879e-09
-1.2857536393204970931e-09
-1.2866340767005497376e-09
-1.2874613229158367902e-09
-1.2881379046106288535e-09
-1.2887607432316651912e-09
-1.2892131353721493267e-09
-1.2896281687783126939e-09
-1.289861318805473665e-09
-1.2900658697835697222e-09
-1.2900698254502050616e-09
-1.290061129997503422e-09
-1.289826413618699094e-09
-1.2895971097116662646e-09
-1.289125972390596753e-09
-1.2886799872111670758e-09
-1.2879640412384905598e-09
-1.2872846773284763729e-09
-1.2863121640540979845e-09
-1.2854053473042640611e-09
-1.2841876327896015554e-09
-1.2830627529521854385e-09
-1.2815824470810061657e-09
-1.2802131465179720844e-09
-1.2784534259405778941e-09
-1.2768475226852635041e-09
-1.274808404698459056e-09
-1.2729682929934779552e-09
-1.2706455511292818402e-09
-1.2685679002389826604e-09
-1.265943198434321905e-09
-1.2636220029075541658e-09
-1.2606961192934248885e-09
-1.2581342099656513406e-09
-1.2548887674269693983e-09
-1.2520674508201146426e-09
-1.2484822052016995284e-09
-1.2454270384271166412e-09
-1.2415162100795561025e-09
-1.2382133044968067462e-09
-1.2339478596423771932e-09
-1.230396174286106768e-09
-1.2257682365812139466e-09
-1.2219692413159122079e-09
-1.2169503104414536332e-09
-1.212896327890826758e-09
-1.2074786161588227397e-09
-1.2031656839148635295e-09
-1.1973459113137757964e-09
-1.1927775166786922096e-09
-1.1865353900889370719e-09
-1.1817156690455746843e-09
-1.1750242265493434543e-09
-1.1699412463670816657e-09
-1.1627776744746059705e-09
-1.1574417029689520274e-09
-1.1497935232883438034e-09
-1.1441918868686102856e-09
-1.1360236139568506426e-09
-1.1301520208584285734e-09
-1.1214437219179529085e-09
-1.1152999947204548741e-09
-1.1060342898854113291e-09
-1.0996158974427573942e-09
-1.0897648506451217411e-09
-1.0830636585964417453e-09
-1.0725693756832172263e-09
-1.0655698971294117952e-09
-1.0544070762887035328e-09
-1.0471050267379405697e-09
-1.0352448657984150908e-09
-1.0276327105023647487e-09
-1.0150011936148618264e-09
-1.0070504583502427934e-09
-9.9361822586748083164e-10
-9.853013989744980079e-10
-9.7098897486183360084e-10
-9.6227910446818465061e-10
-9.4702908152437519179e-10
-9.3788642730217418677e-10
-9.2158010644646518609e-10
-9.1194108220132852111e-10
-8.9448771730076227492e-10
-8.8426802380014399735e-10
-8.6553105412606367911e-10
-8.5463254765719099309e-10
-8.344477313910204895e-10
-8.2273252551267764084e-10
-8.008804417338456563e-10
-7.8813173336304681335e-10
-7.6432628027146326432e-10
-7.5029008883377634431e-10
-7.2416333768899354229e-10
-7.0847600733540270787e-10
-6.7953749927704243004e-10
-6.6165228401259029421e-10
-6.2922980548029111864e-10
-6.0842755678915558251e-10
-5.7160102941323644278e-10
-5.4684609216658463366e-10
-5.0433822509023298719e-10
-4.7420203133898323321e-10
-4.2428094034168650119e-10
-3.8672392119610044947e-10
-3.2703612226538612629e-10
-2.7945178732976545733e-10
-2.071534974462353503e-10
-1.4639829370035580431e-10
-5.9567193218862757879e-11
1.0656794951612418869e-11
1.1126669103558418884e-10
2.4243838379848850449e-10
2.8023697391603897493e-10
8.3016487474096030901e-11
1.0582191542926517516e-10
9.4240160607813675424e-11
7.2098735954555597756e-11
4.4321524953783903765e-11
5.23866990660951002e-13
-4.5425438637229999016e-11
-1.0139064030128118281e-10
-1.5647744684391871358e-10
-2.1867251386214411786e-10
-2.785568308281566447e-10
-3.437544480688926268e-10
-4.0598934484086382892e-10
-4.7240153550388695032e-10
-5.3561973890204495411e-10
-6.0225860857121098797e-10
-6.6565767983508227117e-10
-7.3190485678218073272e-10
-7.9500722741390128581e-10
-8.6052660775404418446e-10
-9.2304492796391910603e-10
-9.8763910939989068037e-10
-1.0493795180342775299e-09
-1.1129211158939217039e-09
-1.1738067671416136869e-09
-1.2362333042663591623e-09
-1.2961800648571303418e-09
-1.3574619620022740408e-09
-1.4164312418512138542e-09
-1.4765515515436260514e-09
-1.5345245526536166986e-09
-1.5934850129007947605e-09
-1.6504524029400544234e-09
-1.7082506540813099387e-09
-1.7641855504930944742e-09
-1.8208228254593946012e-09
-1.8757176200337679505e-09
-1.9311697628176875942e-09
-1.9849892487996657603e-09
-2.0392585153414439747e-09
-2.0920014599362993415e-09
-2.1450910986220469896e-09
-2.1967613780657333841e-09
-2.2486905062540939991e-09
-2.2992766348322547486e-09
-2.350039277921714482e-09
-2.399546550883541171e-09
-2.4491404075538607159e-09
-2.4975444905368220041e-09
-2.5459799671146356202e-09
-2.5932932201171714973e-09
-2.6405681715291447208e-09
-2.6867827721471960904e-09
-2.7328960302909577187e-09
-2.7780135346461914169e-09
-2.8229722329456137674e-09
-2.8669712433659557161e-09
-2.9107671043392457456e-09
-2.9536636632788753768e-09
-2.9963112435740601824e-09
-3.0380907938967955507e-09
-3.0795681961167577985e-09
-3.1202441214980126342e-09
-3.1605846101031555432e-09
-3.2001479201063371655e-09
-3.2393602669215307516e-09
-3.2778234190968863716e-09
-3.3159038922469210059e-09
-3.3532480542414636905e-09
-3.3901998045076103979e-09
-3.4264516972560599445e-09
-3.462295242776820314e-09
-3.4974453165522475052e-09
-3.5321787038851110999e-09
-3.566223883479085707e-09
-3.5998631624933387045e-09
-3.6328292971756070396e-09
-3.6653784581594042068e-09
-3.6972811857720276021e-09
-3.7287527406020027937e-09
-3.759584007510439302e-09
-3.7899828921875742839e-09
-3.8197551408650873145e-09
-3.8490994796430906266e-09
-3.8778470075229414007e-09
-3.9061617557495602001e-09
-3.9338777731379306003e-09
-3.9611590037893789996e-09
-3.9878534466002474609e-09
-4.0141280039074075047e-09
-4.0398280000186164031e-09
-4.065108792491771191e-09
-4.0898296784893452259e-09
-4.1141260323375996258e-09
-4.1378667170396593165e-09
-4.161194772132443216e-09
-4.1839857382148236663e-09
-4.2063604768706549823e-09
-4.2282064340761357905e-09
-4.2496400861115393393e-09
-4.2705594856759019618e-09
-4.29107500833274627e-09
-4.3110835698834836973e-09
-4.3306925691806893242e-09
-4.3498106532585358474e-09
-4.3685347017513116093e-09
-4.3867704705253134196e-09
-4.4046177238917927713e-09
-4.4219875895593536143e-09
-4.4389820508123982135e-09
-4.4555130877920414966e-09
-4.4716724745630531011e-09
-4.487381765828356627e-09
-4.5027215010650219225e-09
-4.5176204590964689005e-09
-4.5321594203558461645e-09
-4.5462612765404360874e-09
-4.5600104784927341542e-09
-4.5733310947366021005e-09
-4.5863034020765438918e-09
-4.5988629142897250691e-09
-4.6110830505819917724e-09
-4.6228970729007389885e-09
-4.6343779519045164045e-09
-4.6454633077283865347e-09
-4.6562190800290343618e-09
-4.6665919975937046406e-09
-4.6766449837191139957e-09
-4.686322416374624985e-09
-4.6956875551199568129e-09
-4.704682714202229927e-09
-4.7133710607145140597e-09
-4.7217013878148759869e-09
-4.7297290798526774777e-09
-4.7374051529566187391e-09
-4.7447881795901322851e-09
-4.7518305655594070004e-09
-4.758588998957861095e-09
-4.7650102562629946435e-09
-4.7711478817341747211e-09
-4.77696254654858724e-09
-4.7825018415732808831e-09
-4.7877246351243357462e-09
-4.7926745134610070059e-09
-4.7973124182085433875e-09
-4.8016855662560019849e-09
-4.8057568393963886712e-09
-4.8095621003186158402e-09
-4.8130632860061191933e-09
-4.8162918682290542625e-09
-4.8192090196286117515e-09
-4.8218204905688571875e-09
-4.8241859350991299989e-09
-4.8262761566003330341e-09
-4.8281316200535712498e-09
-4.8297138985646992228e-09
-4.8310584125961284932e-09
-4.8321187313118389542e-09
-4.8329363013148148751e-09
-4.8334616357606342626e-09
-4.833737527341984821e-09
-4.8337180358649366168e-09
-4.833444778149185037e-09
-4.8328677049758985345e-09
-4.8320305372068383782e-09
-4.8308761739425846145e-09
-4.8294569292380319932e-09
-4.82771546695876567e-09
-4.8257048953763779139e-09
-4.8233624270980018933e-09
-4.8207395198687876211e-09
-4.8177778490691372824e-09
-4.8145291307597318622e-09
-4.8109354129307323013e-09
-4.807047983736389259e-09
-4.8028054933909395009e-09
-4.7982633604643481857e-09
-4.793354902806939912e-09
-4.7881415099316755806e-09
-4.7825508653194094026e-09
-4.7766462955569524729e-09
-4.7703550771794192244e-09
-4.7637416944365693739e-09
-4.7567321795248320577e-09
-4.7493946392431506937e-09
-4.741651800391426223e-09
-4.7335715245208852972e-09
-4.725076898859509663e-09
-4.7162450379855268891e-09
-4.7069866391241030205e-09
-4.6973798603317878954e-09
-4.6873428809725192191e-09
-4.6769489779113276673e-09
-4.6661053233455803429e-09
-4.654901678110414832e-09
-4.6432394325276409533e-09
-4.6312081310029150503e-09
-4.6187080956806244329e-09
-4.6058304778968793076e-09
-4.5924692591024912252e-09
-4.5787304335476970175e-09
-4.5644994585966167249e-09
-4.549880325462282819e-09
-4.5347605566358996437e-09
-4.5192452666583176113e-09
-4.5032113744797445751e-09