/*--------------------------------*- C++ -*----------------------------------*\
| =========                 |                                                 |
| \\      /  F ield         | OpenFOAM: The Open Source CFD Toolbox           |
|  \\    /   O peration     | Version:  2406                                  |
|   \\  /    A nd           | Website:  www.openfoam.com                      |
|    \\/     M anipulation  |                                                 |
\*---------------------------------------------------------------------------*/
FoamFile
{
    version     2.0;
    format      ascii;
    arch        "LSB;label=32;scalar=64";
    class       volScalarField;
    location    "178500.00000589207";
    object      Psi;
}
// * * * * * * * * * * * * * * * * * * * * * * * * * * * * * * * * * * * * * //

dimensions      [0 0 0 0 0 0 0];

internalField   nonuniform List<scalar> 
30000
(
-1.1203068722523787937
-1.1201523434982383343
-1.1201015897527570875
-1.1200807546581028618
-1.1200704247341135567
-1.1200645867496024088
-1.1200610092168896692
-1.1200587132477435315
-1.1200572074835755121
-1.1200562191819727342
-1.1200555852303444304
-1.1200552024807008955
-1.1200550027509401652
-1.120054939393241078
-1.1200549795185403834
-1.1200550994040430197
-1.1200552815435287357
-1.1200555128223195211
-1.1200557832241584411
-1.1200560850310621319
-1.1200564121859399869
-1.1200567599210338177
-1.1200571244093935341
-1.1200575025898942272
-1.1200578919571029246
-1.1200582904832245834
-1.1200586964789867039
-1.1200591085662074953
-1.1200595255772984871
-1.1200599465555141077
-1.1200603706765350775
-1.1200607972644140986
-1.1200612257263771188
-1.1200616555779028261
-1.1200620863857833065
-1.1200625177986116565
-1.1200629494952163423
-1.1200633812183922178
-1.1200638127269373356
-1.1200642438313377358
-1.1200646743483348988
-1.120065104137684342
-1.1200655330586948288
-1.1200659610074645833
-1.1200663878749070879
-1.1200668135842046791
-1.1200672380500136249
-1.1200676612159072842
-1.1200680830145550715
-1.1200685034050177347
-1.120068922333762762
-1.1200693397717120803
-1.1200697556759933171
-1.1200701700266790795
-1.1200705827892021293
-1.120070993950740057
-1.1200714034832486288
-1.1200718113794558839
-1.1200722176164772392
-1.1200726221914001357
-1.120073025085450924
-1.1200734262991582924
-1.1200738258170446215
-1.120074223642362643
-1.1200746197623008271
-1.1200750141822752859
-1.1200754068916387585
-1.120075797897530645
-1.1200761871910753786
-1.1200765747807877037
-1.1200769606592453353
-1.1200773448360610285
-1.1200777273050179783
-1.1200781080765995767
-1.1200784871456050951
-1.1200788645231944951
-1.1200792402050145924
-1.1200796142027793501
-1.1200799865128239219
-1.1200803571473070264
-1.1200807261031602291
-1.120081093392873095
-1.1200814590138876703
-1.1200818229789464286
-1.1200821852859284
-1.1200825459477630197
-1.1200829049627050171
-1.1200832623438170543
-1.120083618089678712
-1.1200839722134408039
-1.1200843247139671277
-1.1200846756044597896
-1.1200850248840283907
-1.1200853725658952431
-1.1200857186493879958
-1.1200860631477222995
-1.1200864060604176498
-1.1200867474006626079
-1.1200870871681478658
-1.1200874253760157995
-1.1200877620241080912
-1.1200880971255062768
-1.12008843068018904
-1.1200887627011635317
-1.1200890931885325585
-1.120089422155216452
-1.1200897496014312615
-1.1200900755400033937
-1.1200903999712499282
-1.1200907229078944649
-1.1200910443503486746
-1.1200913643112289098
-1.1200916827910361029
-1.1200919998022715873
-1.120092315345517342
-1.1200926294331476907
-1.1200929420658152225
-1.1200932532557794641
-1.1200935630037629487
-1.1200938713219001919
-1.1200941782109778977
-1.1200944836830031281
-1.1200947877388243157
-1.1200950903903179601
-1.1200953916383902254
-1.120095691494786827
-1.120095989960468108
-1.1200962870470474453
-1.1200965827555386944
-1.1200968770974206734
-1.1200971700737567538
-1.1200974616958925267
-1.1200977519649382153
-1.1200980408921059617
-1.1200983284785517302
-1.120098614735352216
-1.1200988996637082362
-1.1200991832745614829
-1.1200994655691554058
-1.1200997465582982482
-1.1201000262432732058
-1.1201003046347552949
-1.1201005817340674575
-1.1201008575517503729
-1.1201011320891653966
-1.1201014053567217577
-1.1201016773558165607
-1.120101948096725808
-1.1201022175808785786
-1.1201024858184480681
-1.1201027534318879209
-1.1201030216733753875
-1.1201032911654114077
-1.1201035619182573289
-1.1201038339333526661
-1.1201041072211479488
-1.1201043817830116378
-1.1201046576295887736
-1.1201049347621758745
-1.1201052131916191534
-1.1201054929191389675
-1.1201057739557882531
-1.1201060563027103179
-1.1201063399711685964
-1.1201066249622255722
-1.1201069112873636158
-1.120107198947562388
-1.1201074879545265262
-1.1201077783091508699
-1.120108070023370983
-1.1201083630979935535
-1.120108657545188402
-1.1201089533656725106
-1.1201092505718603931
-1.1201095491643766611
-1.1201098491558849624
-1.1201101505469150954
-1.1201104533503896121
-1.1201107575667430538
-1.1201110632091617614
-1.1201113702779830206
-1.1201116787866678415
-1.1201119887354547
-1.1201123001380874911
-1.1201126129947045484
-1.1201129273193424218
-1.1201132431120401911
-1.1201135603871357205
-1.1201138791445688359
-1.1201141993989929269
-1.1201145211502456789
-1.1201148444133051107
-1.1201151691879129846
-1.1201154954893850491
-1.1201158233173675871
-1.1201161526875291763
-1.1201164835994232849
-1.1201168160690870845
-1.1201171500959852256
-1.1201174856965410154
-1.1201178228701356154
-1.1201181616335964542
-1.1201185019862311965
-1.1201188439452924861
-1.1201191875100235951
-1.1201195326981256972
-1.12011987950878944
-1.1201202279601925049
-1.1201205780514886801
-1.1201209298013601323
-1.1201212832089464388
-1.120121638293469335
-1.1201219950540737269
-1.1201223535105631068
-1.120122713662117242
-1.1201230755291666785
-1.1201234391109640143
-1.120123804428619696
-1.1201241714815026729
-1.1201245402914670191
-1.1201249108580528802
-1.1201252832039316765
-1.1201256573288806972
-1.1201260332564773048
-1.1201264109868340757
-1.1201267905445229101
-1.1201271719300858187
-1.1201275551692402299
-1.1201279402630559545
-1.1201283272385635925
-1.120128716097535948
-1.1201291068684890995
-1.1201294995540946875
-1.120129894184588526
-1.1201302907637862294
-1.1201306893239306728
-1.1201310898702860896
-1.1201314924374627946
-1.1201318970325644386
-1.1201323036930186383
-1.1201327124282560721
-1.1201331232790943115
-1.1201335362579178945
-1.1201339514096615435
-1.1201343687504694557
-1.120134788330320097
-1.120135210170159823
-1.1201356343262161008
-1.1201360608255901408
-1.1201364897323233816
-1.1201369210814471344
-1.1201373549468727209
-1.120137791373910785
-1.1201382304490627995
-1.1201386722310460176
-1.1201391168225947048
-1.1201395643000382485
-1.1201400147872577762
-1.1201404683839171206
-1.1201409252417509066
-1.1201413854916100199
-1.1201418493223491701
-1.1201423169069326669
-1.1201427884843022653
-1.1201432642849298293
-1.1201437446162394451
-1.1201442297882411303
-1.1201447202033685269
-1.1201452162832190584
-1.1201457185641769954
-1.1201462276269380514
-1.1201467442001598052
-1.1201472690956029155
-1.1201478033235849896
-1.1201483480386453806
-1.1201489046734125488
-1.1201494749036053911
-1.1201500608123631242
-1.120150664891049086
-1.1201512902570383012
-1.12015194072268498
-1.1201526211129242405
-1.1201533374697081324
-1.1201540975691437474
-1.1201549114117903549
-1.1201557921714131449
-1.1201567573379591636
-1.1201578306943031915
-1.1201590451126330894
-1.120160447301867146
-1.1201621054266026611
-1.1201641226969849541
-1.1201666622074317736
-1.1201699967636087329
-1.1201746177052163134
-1.1201815039849039035
-1.1201928870706581165
-1.1202147802593729331
-1.1202665970105003534
-1.1204221937491523065
-1.0579638703306388781
-1.0578151292127573324
-1.0577355996239612423
-1.0576916445234740838
-1.0576657503992528131
-1.0576495025484502488
-1.0576387581811035332
-1.0576313585583347887
-1.0576261054122888527
-1.05762229308715483
-1.0576194841674173563
-1.0576173954222849449
-1.057615836696720768
-1.0576146762860152428
-1.0576138206108789408
-1.0576132016218597887
-1.0576127689224885664
-1.0576124844990053564
-1.0576123193043864834
-1.0576122507940222128
-1.0576122613193255084
-1.0576123368631771271
-1.0576124662421308997
-1.0576126404016727989
-1.0576128520085834595
-1.0576130950266704467
-1.0576133645094174529
-1.0576136563248292877
-1.0576139670562205719
-1.0576142938104993174
-1.0576146341797567629
-1.0576149860983938833
-1.0576153478400365238
-1.057615717904439645
-1.0576160950354513979
-1.0576164781267687331
-1.0576168662526799213
-1.0576172585861955966
-1.0576176544376048039
-1.0576180531810908114
-1.0576184542978930292
-1.0576188573090321565
-1.057619261821281853
-1.0576196674642146522
-1.0576200739377843441
-1.0576204809527327555
-1.0576208882789290833
-1.0576212956884438743
-1.0576217030041217271
-1.0576221100448242041
-1.0576225166738859595
-1.057622922746194627
-1.0576233281562870125
-1.057623732787023485
-1.057624136557165917
-1.05762453937147205
-1.0576249411676448275
-1.0576253418677132867
-1.0576257414242826727
-1.057626139773104823
-1.0576265368785837673
-1.0576269326874516707
-1.0576273271735001646
-1.0576277202923096699
-1.0576281120251800338
-1.0576285023348641623
-1.0576288912086948546
-1.0576292786152783343
-1.0576296645468152846
-1.0576300489767136437
-1.0576304319011184951
-1.0576308132974023835
-1.0576311931649069464
-1.0576315714843125271
-1.057631948257548915
-1.0576323234680622409
-1.0576326971199052629
-1.0576330691988147237
-1.0576334397105944252
-1.0576338086429251106
-1.0576341760030272265
-1.0576345417802377469
-1.0576349059829290855
-1.0576352686018501981
-1.0576356296463118589
-1.057635989108274055
-1.0576363469978091736
-1.0576367033079172586
-1.0576370580492884255
-1.057637411215823553
-1.0576377628187059177
-1.0576381128526184394
-1.0576384613291376358
-1.057638808243630546
-1.0576391536079794431
-1.0576394974181513309
-1.0576398396862629614
-1.0576401804088098046
-1.0576405195980846941
-1.0576408572510500594
-1.0576411933801233012
-1.0576415279826809623
-1.0576418610712243762
-1.0576421926434991239
-1.0576425227120525019
-1.0576428512749624922
-1.0576431783447917123
-1.057643503919915684
-1.0576438280128868108
-1.0576441506223486222
-1.0576444717608222135
-1.057644791427199582
-1.0576451096339574143
-1.0576454263802035349
-1.057645741678357787
-1.0576460555277087394
-1.0576463679405847529
-1.0576466789164800097
-1.0576469884676329425
-1.0576472965937080417
-1.0576476033068449301
-1.0576479086068639734
-1.0576482125057982131
-1.0576485150036116778
-1.057648816112224166
-1.0576491158317347097
-1.0576494141739449795
-1.0576497111390772421
-1.0576500067388105997
-1.0576503009734845584
-1.0576505938546509888
-1.057650885382757755
-1.0576511755692281636
-1.0576514644146126631
-1.0576517519302019998
-1.0576520381166421014
-1.0576523229850915975
-1.0576526065362865658
-1.0576528887812517432
-1.0576531697208073624
-1.0576534493658429348
-1.0576537277172606277
-1.0576540047858138394
-1.0576542805724802321
-1.0576545550878782009
-1.0576548283330573508
-1.0576551003185008515
-1.057655371045328474
-1.0576556405239063707
-1.0576559087553769611
-1.0576561763710305986
-1.0576564446141831777
-1.0576567141162886987
-1.0576569848787065187
-1.0576572569120341605
-1.0576575302175867943
-1.0576578048061615611
-1.0576580806790250033
-1.0576583578471794311
-1.0576586363118427592
-1.0576589160842273518
-1.057659197165502718
-1.0576594795670974936
-1.0576597632901341139
-1.0576600483462641478
-1.0576603347365616248
-1.0576606224729079297
-1.0576609115563309071
-1.0576612019989499736
-1.0576614938017472323
-1.0576617869770883473
-1.0576620815259107911
-1.0576623774608358008
-1.0576626747827586605
-1.0576629735045652847
-1.0576632736271123214
-1.0576635751635605764
-1.0576638781147318369
-1.0576641824940720138
-1.0576644883023729182
-1.0576647955533797774
-1.0576651042478593112
-1.0576654143998691637
-1.0576657260101576252
-1.0576660390931096334
-1.0576663536494645967
-1.057666669693950956
-1.057666987227309674
-1.057667306264630902
-1.0576676268066698139
-1.0576679488688969233
-1.0576682724520911627
-1.0576685975721324962
-1.0576689242298438209
-1.0576692524415374219
-1.057669582208099035
-1.057669913546303464
-1.0576702464571237083
-1.0576705809578306194
-1.0576709170495106616
-1.0576712547499700356
-1.0576715940604424215
-1.0576719349993135566
-1.0576722775680034161
-1.0576726217855270118
-1.0576729676535387981
-1.0576733151917427911
-1.0576736644020796607
-1.0576740153050110393
-1.05767436790283198
-1.0576747222168418894
-1.0576750782497676973
-1.0576754360238405095
-1.0576757955423110591
-1.0576761568284525072
-1.0576765198861515227
-1.0576768847398554385
-1.0576772513942216403
-1.0576776198750259539
-1.0576779901878576862
-1.0576783623600078954
-1.0576787363981909884
-1.0576791123314384091
-1.0576794901678394645
-1.0576798699384182267
-1.0576802516529315579
-1.0576806353447441023
-1.0576810210255893629
-1.0576814087315853374
-1.0576817984769064651
-1.0576821903008999382
-1.0576825842207164818
-1.0576829802795402191
-1.0576833784981591879
-1.0576837789243447308
-1.0576841815833544214
-1.0576845865284825177
-1.0576849937904984067
-1.0576854034293965423
-1.0576858154827690761
-1.0576862300187972465
-1.05768664708355975
-1.0576870667553182059
-1.0576874890907654869
-1.0576879141806592166
-1.0576883420950424775
-1.0576887729402868477
-1.0576892068033239003
-1.0576896438101890396
-1.0576900840693206352
-1.057690527731713237
-1.0576909749333798239
-1.0576914258572616134
-1.0576918806749919799
-1.0576923396107580366
-1.0576928028825718364
-1.0576932707683643908
-1.057693743547050591
-1.0576942215672635594
-1.0576947051886533835
-1.0576951948538282355
-1.0576956910305492787
-1.0576961942877263212
-1.0576967052395105373
-1.0576972246266231892
-1.0576977532638829338
-1.0576982921288429207
-1.0576988423151836294
-1.0576994051317427648
-1.0576999820656769469
-1.0577005748969068311
-1.0577011856774503062
-1.0577018168696357137
-1.057702471352464979
-1.057703152597927021
-1.0577038647234109359
-1.0577046127316396262
-1.0577054026436716327
-1.057706241849851736
-1.0577071393890182804
-1.0577081065026778806
-1.0577091571917245361
-1.057710309163754081
-1.0577115849465890118
-1.0577130136472290278
-1.0577146332620643854
-1.0577164942485288712
-1.0577186646381089297
-1.0577212380720601992
-1.0577243462365193416
-1.0577281793495094675
-1.0577330206226189802
-1.0577393075353902496
-1.0577477457237827174
-1.0577595335207319316
-1.0577768296446037333
-1.0578037769514858635
-1.0578487901230646528
-1.0579293827384763649
-1.0580791918168470644
-1.0003430611268144812
-1.0002314515104777648
-1.000155326562770064
-1.0001052699648036448
-1.0000720883981373266
-1.0000495525428572119
-1.000033814018429501
-1.0000225312065809113
-1.0000142582418005688
-1.0000080787124909776
-1.0000033944541519837
-0.99999980364804375021
-0.99999702905792675622
-0.9999948747726963294
-0.99999319932908670161
-0.99999189863985671334
-0.99999089478966496358
-0.99999012859310543178
-0.99998955445971193789
-0.99998913686872858975
-0.99998884781850050363
-0.99998866504104855224
-0.99998857064494206526
-0.99998855016235244086
-0.99998859178195143027
-0.99998868581997502059
-0.99998882426204782625
-0.99998900046190131174
-0.99998920885300390804
-0.99998944477514606355
-0.99998970428337452532
-0.99998998404920991234
-0.99999028122739275215
-0.99999059340214146996
-0.9999909184893223113
-0.99999125471071492743
-0.99999160051851154751
-0.99999195458745326892
-0.99999231575371338998
-0.99999268301874622011
-0.99999305549754691214
-0.99999343243029958916
-0.99999381313713997521
-0.99999419703490632916
-0.99999458359633297544
-0.99999497237040846365
-0.99999536294462487707
-0.99999575496783899009
-0.99999614811468551245
-0.99999654211020616579
-0.99999693669581313227
-0.99999733165516957456
-0.99999772678129439374
-0.99999812190332559858
-0.9999985168544793801
-0.99999891149944164503
-0.99999930570297246302
-0.99999969935774513097
-1.0000000923534486663
-1.0000004846049370677
-1.0000008760217349302
-1.0000012665363893216
-1.0000016560743067995
-1.0000020445822308535
-1.0000024319983624732
-1.0000028182808995414
-1.0000032033784116425
-1.0000035872583907803
-1.0000039698778508956
-1.0000043512118617084
-1.0000047312243556252
-1.0000051098966082908
-1.0000054871982455573
-1.0000058631156452105
-1.0000062376231604322
-1.000006610711370536
-1.0000069823585486795
-1.0000073525587762635
-1.0000077212935736259
-1.000008088559940278
-1.0000084543421350336
-1.0000088186395810208
-1.0000091814388407663
-1.0000095427413633331
-1.0000099025356588012
-1.0000102608248699898
-1.0000106175991612112
-1.0000109728630974804
-1.0000113266082462093
-1.0000116788403687895
-1.0000120295522330061
-1.0000123787506021156
-1.0000127264292737461
-1.0000130725958513711
-1.0000134172450196868
-1.0000137603850856038
-1.0000141020114965418
-1.0000144421331513822
-1.0000147807461579053
-1.0000151178599077095
-1.0000154534710814502
-1.0000157875894808424
-1.0000161202122854753
-1.0000164513496361263
-1.000016780999147592
-1.0000171091712384275
-1.0000174358639055683
-1.0000177610877920564
-1.0000180848412316692
-1.0000184071350459725
-1.0000187279678631747
-1.0000190473506533895
-1.0000193652823130552
-1.00001968177391376
-1.000019996824594859
-1.0000203104454810088
-1.000020622635902523
-1.0000209334070615519
-1.0000212427584749264
-1.0000215507013747729
-1.0000218572354451219
-1.0000221623719292019
-1.0000224661106611457
-1.0000227684628792968
-1.0000230694285519029
-1.0000233690188988778
-1.00002366723401237
-1.0000239640850792089
-1.0000242595723034533
-1.0000245537068299662
-1.0000248464889649469
-1.0000251379298004117
-1.0000254280297378173
-1.0000257167998078955
-1.0000260042404989225
-1.0000262903627739064
-1.0000265751672019476
-1.0000268586646714475
-1.0000271408558267794
-1.0000274217514764086
-1.0000277013523364289
-1.0000279796691295964
-1.0000282567026368419
-1.0000285324634938799
-1.000028806952544036
-1.0000290801803302099
-1.0000293521477550129
-1.0000296228652645336
-1.0000298923338040158
-1.0000301605637587077
-1.0000304281771188464
-1.0000306964264058518
-1.0000309659338946222
-1.000031236710339444
-1.00003150875694935
-1.0000317820847168804
-1.0000320566947844547
-1.0000323325983933032
-1.0000326097966192318
-1.0000328883009619307
-1.0000331681124288163
-1.0000334492427866984
-1.0000337316929757137
-1.0000340154750393395
-1.0000343005898506554
-1.0000345870497424627
-1.0000348748555196732
-1.0000351640198168468
-1.000035454543372726
-1.0000357464391342877
-1.0000360397077774355
-1.0000363343625766621
-1.0000366304041456988
-1.0000369278461025413
-1.0000372266890027451
-1.0000375269468233519
-1.000037828620067959
-1.0000381317230893075
-1.0000384362563441432
-1.0000387422345824451
-1.0000390496582209909
-1.000039358542429202
-1.0000396688875934359
-1.0000399807093258708
-1.0000402940079937686
-1.0000406087996778215
-1.0000409250847406284
-1.0000412428797635922
-1.0000415621851208581
-1.0000418830179262919
-1.0000422053785826826
-1.0000425292847696657
-1.0000428547369490939
-1.0000431817534121137
-1.0000435103347042887
-1.0000438404997735731
-1.0000441722492838803
-1.0000445056028932633
-1.0000448405614250635
-1.0000451771453080507
-1.0000455153555738441
-1.0000458552134909862
-1.000046196720353997
-1.000046539898352016
-1.0000468847491130742
-1.0000472312958377241
-1.0000475795405667778
-1.0000479295076203368
-1.0000482811995483612
-1.0000486346419139583
-1.0000489898378925879
-1.0000493468144340259
-1.0000497055754771214
-1.000050066149528849
-1.0000504285414568706
-1.0000507927815258657
-1.0000511588757305947
-1.0000515268563303639
-1.0000518967306875062
-1.0000522685333392836
-1.0000526422733031495
-1.0000530179877336057
-1.000053395687651614
-1.0000537754132352575
-1.0000541571779579808
-1.0000545410254944034
-1.0000549269722844858
-1.0000553150661162238
-1.0000557053269931718
-1.0000560978075776486
-1.0000564925322572574
-1.0000568895594408314
-1.0000572889188752423
-1.0000576906758280593
-1.0000580948666206726
-1.0000585015647613929
-1.0000589108146671347
-1.0000593226998135687
-1.0000597372746264924
-1.0000601546347207549
-1.0000605748469524325
-1.0000609980218277961
-1.000061424241710295
-1.0000618536355041499
-1.0000622863050288025
-1.0000627224020859352
-1.000063162053033583
-1.0000636054383889029
-1.0000640527156570148
-1.0000645041016418268
-1.0000649597936406288
-1.0000654200546843509
-1.0000658851332608901
-1.0000663553517861182
-1.0000668310251041859
-1.0000673125525900709
-1.0000678003358003387
-1.0000682948747694478
-1.0000687966853678557
-1.0000693064005834465
-1.0000698246884385245
-1.0000703523593881261
-1.0000708902860797611
-1.0000714395185630323
-1.0000720012078567756
-1.0000725767315059578
-1.0000731676240353085
-1.0000737757168076669
-1.0000744030802026785
-1.0000750521840275908
-1.0000757258592991583
-1.0000764274894031747
-1.0000771610045307014
-1.0000779311206866584
-1.0000787433891147327
-1.0000796045127833267
-1.0000805224902449275
-1.0000815070628885639
-1.0000825700256654738
-1.0000837259049748518
-1.0000849925753056979
-1.0000863923641691855
-1.0000879532557009899
-1.0000897108311692651
-1.0000917106629239051
-1.0000940119978847243
-1.0000966927326595535
-1.0000998570170296365
-1.000103646294884685
-1.0001082565409278313
-1.000113964971345748
-1.0001211734695638622
-1.0001304801793169386
-1.0001428015780222669
-1.0001595835096406262
-1.0001831676594798992
-1.0002174023856233998
-1.0002685170763687683
-1.0003457050266264527
-1.0004583826253463652
-0.94706527479452262686
-0.9469830292421115292
-0.94691844822497284184
-0.94687067416981951506
-0.94683599779468019531
-0.94681079798659406599
-0.9467922928644053604
-0.94677851462459527987
-0.94676810885967432885
-0.94676014577426759189
-0.94675398142377731325
-0.94674916339628112372
-0.94674536875126957813
-0.94674236308010484287
-0.94673997359816819408
-0.94673807096145490281
-0.94673655707982429242
-0.94673535654241969262
-0.94673441077494535634
-0.94673367372045202917
-0.94673310888734873991
-0.94673268702972435129
-0.94673238459190767191
-0.94673218238413225922
-0.94673206473921578397
-0.94673201871044154743
-0.94673203360906788006
-0.94673210048940459327
-0.94673221189854994684
-0.94673236152620365846
-0.9467325440768892264
-0.9467327550179432949
-0.9467329905245255306
-0.9467332472882030725
-0.94673352250625608661
-0.94673381372893128383
-0.94673411887620362304
-0.94673443611049168389
-0.94673476387063237869
-0.94673510076192390894
-0.94673544560080113985
-0.94673579731711809959
-0.94673615500558205849
-0.946736517836781033
-0.94673688511275233548
-0.94673725618460236042
-0.94673763051044546035
-0.94673800757812676121
-0.94673838696437029316
-0.94673876826157166153
-0.94673915113738060789
-0.94673953526483856091
-0.94673992038186371989
-0.94674030622422056247
-0.94674069258454385256
-0.94674107924776473855
-0.94674146604942588379
-0.94674185281328526731
-0.94674223940875590344
-0.94674262569047884508
-0.94674301155477236236
-0.94674339688100583867
-0.94674378158699135088
-0.94674416557203311395
-0.94674454877120839402
-0.94674493109998991702
-0.94674531250739479837
-0.94674569292209165283
-0.94674607230440355199
-0.94674645059383266688
-0.94674682775991214623
-0.94674720375108656345
-0.94674757854442215255
-0.94674795209579543087
-0.94674832438844203075
-0.94674869538444950123
-0.94674906507214351414
-0.94674943341879602698
-0.94674980041694956068
-0.94675016603825279393
-0.94675053027872746458
-0.9467508931137321726
-0.94675125454217323728
-0.94675161454256961946
-0.94675197311622016905
-0.94675233024434546358
-0.9467526859302326514
-0.946753040157421899
-0.9467533929308524776
-0.94675374423606362129
-0.94675409407936939044
-0.94675444244803996785
-0.94675478934952628229
-0.94675513477260542228
-0.94675547872567000773
-0.94675582119881129817
-0.94675616220119773736
-0.94675650172407277427
-0.94675683977724189866
-0.94675717635296197106
-0.9467575114615586207
-0.94675784509618265972
-0.94675817726757927062
-0.94675850796969118761
-0.9467588372136005459
-0.94675916499395273984
-0.94675949132209569203
-0.94675981619330273897
-0.9467601396191230867
-0.94676046159539140046
-0.9467607821338077656
-0.94676110123071854918
-0.94676141889793341555
-0.9467617351322484831
-0.94676204994555401839
-0.94676236333503294151
-0.94676267531259572507
-0.94676298587582086164
-0.94676329503662837173
-0.9467636027929352549
-0.94676390915664554448
-0.94676421412598665839
-0.94676451771282743586
-0.94676481991567706942
-0.9467651207463535501
-0.9467654202036238642
-0.94676571829924027757
-0.94676601503220780831
-0.94676631041420045154
-0.9467666044444433826
-0.94676689713452122366
-0.94676718848386243188
-0.94676747850395459594
-0.94676776719441346764
-0.94676805456662205263
-0.94676834062037229511
-0.94676862536693617844
-0.94676890880626785041
-0.94676919094952538547
-0.94676947179681392175
-0.94676975135917174065
-0.94677002963684653292
-0.94677030664075390032
-0.94677058237127531548
-0.94677085683920170212
-0.94677113004503876681
-0.94677140199945042376
-0.94677167270306283875
-0.94677194216642346358
-0.94677221039023218285
-0.94677247800596775473
-0.94677274625664376018
-0.94677301577413330858
-0.94677328655963044479
-0.94677355862416689991
-0.94677383196892306305
-0.94677410660515037844
-0.94677438253401713375
-0.9467746597670017028
-0.9467749383052634915
-0.94677521816051546377
-0.94677549933391158543
-0.94677578183740784823
-0.94677606567215921718
-0.94677635085037403773
-0.94677663737321093862
-0.94677692525314227634
-0.94677721449133811493
-0.94677750510054647926
-0.94677779708195541897
-0.94677809044860117282
-0.94677838520169865788
-0.94677868135458587151
-0.9467789789085157004
-0.94677927787714344365
-0.94677957826177139289
-0.94677988007638946844
-0.94678018332236302257
-0.94678048801403524859
-0.94678079415285110176
-0.94678110175352969691
-0.94678141081761235665
-0.94678172136021876426
-0.94678203338300892522
-0.94678234690152995867
-0.94678266191758431169
-0.94678297844717906884
-0.9467832964922885397
-0.946783616069413414
-0.94678393718073583507
-0.9467842598432855139
-0.94678458405948462406
-0.94678490984694718691
-0.94678523720838270172
-0.9467855661620375729
-0.94678589671096036184
-0.94678622887409047415
-0.94678656265487504129
-0.9467868980730153039
-0.94678723513242779575
-0.94678757385365663879
-0.94678791424116992559
-0.94678825631644591976
-0.94678860008460030695
-0.94678894556815540451
-0.94678929277298606859
-0.94678964172278534672
-0.94678999242432115846
-0.94679034490260327583
-0.94679069916544889018
-0.94679105523936024635
-0.94679141313338854857
-0.94679177287573335065
-0.94679213447689924976
-0.94679249796702713571
-0.94679286335833756638
-0.94679323068320131451
-0.94679359995586620524
-0.94679397121127950587
-0.94679434446609211928
-0.94679471975824158747
-0.94679509710723130933
-0.94679547655448825783
-0.94679585812292577085
-0.94679624185805111303
-0.94679662778685280689
-0.9467970159596740265
-0.94679740640834586518
-0.9467977991889481304
-0.94679819433917955518
-0.94679859192194926187
-0.9467989919820416489
-0.94679939459055462159
-0.94679979980086781399
-0.94680020769395756286
-0.94680061833367945567
-0.94680103181299468673
-0.94680144820859057919
-0.9468018676280555157
-0.94680229016387562613
-0.94680271594160436699
-0.9468031450732817822
-0.94680357770666578876
-0.94680401397813829245
-0.94680445406308322287
-0.94680489812836921004
-0.94680534638398328173
-0.94680579903521822072
-0.94680625633571313671
-0.94680671853951503536
-0.94680718595573520879
-0.94680765890072327018
-0.94680813775462746573
-0.9468086229140142418
-0.94680911485073582234
-0.94680961406547370363
-0.94681012114948370773
-0.94681063673973842043
-0.94681116158437650387
-0.94681169650043595087
-0.94681224244420136849
-0.94681280047297944336
-0.94681337182212998993
-0.94681395787304956091
-0.94681456023955745671
-0.94681518074539738894
-0.94681582152408638731
-0.94681648501106407956
-0.94681717406342291721
-0.94681789197479915288
-0.94681864262530224252
-0.94681943053229411511
-0.94682026104740735217
-0.94682114046511201
-0.94682207629536740967
-0.94682307746749416744
-0.94682415472820746771
-0.94682532100731120472
-0.94682659203089569733
-0.94682798697125636345
-0.94682952944391940431
-0.94683124867676238257
-0.94683318122219239932
-0.94683537311854804042
-0.94683788300191729093
-0.94684078626395384859
-0.94684418105758250128
-0.94684819670700670624
-0.94685300606062838824
-0.94685884350667248732
-0.94686603205043828879
-0.94687502408282220312
-0.9468864636142123592
-0.9469012804183448706
-0.94692082896948892579
-0.94694707704892533418
-0.94698280660553979526
-0.94703163872953355362
-0.94709728277149074493
-0.94718059628169570807
-0.89775167212344131329
-0.8976897900098088634
-0.89763687925274204815
-0.89759441165462439116
-0.89756136969529720648
-0.8975359681856813765
-0.89751646379067717696
-0.89750141976637942687
-0.89748973270662046886
-0.89748058036643463264
-0.89747335629145552627
-0.89746761312995115834
-0.89746301900040981181
-0.89745932557909957605
-0.89745634521430639463
-0.89745393464344014323
-0.89745198336197229416
-0.89745040529560737852
-0.89744913275893822835
-0.89744811206306129847
-0.89744730025856955802
-0.89744666273016027169
-0.89744617136837845361
-0.89744580320315270328
-0.89744553933629167553
-0.89744536413930564578
-0.89744526460633700093
-0.89744522987000008296
-0.89744525079491177522
-0.89744531967904606073
-0.89744542998937681944
-0.89744557617492415336
-0.89744575348874500165
-0.89744595787020153832
-0.89744618582073576452
-0.89744643433021575873
-0.89744670078695354398
-0.89744698293281122137
-0.89744727879540753257
-0.89744758666244461853
-0.8974479050284741577
-0.89744823258232719887
-0.89744856816370977004
-0.897448910759681584
-0.89744925946785059079
-0.89744961349933138894
-0.89744997214639543603
-0.8974503347901315875
-0.89745070087111777912
-0.89745106990056200402
-0.89745144143301269768
-0.89745181508012694671
-0.89745219048475488588