/*--------------------------------*- C++ -*----------------------------------*\
| =========                 |                                                 |
| \\      /  F ield         | OpenFOAM: The Open Source CFD Toolbox           |
|  \\    /   O peration     | Version:  2406                                  |
|   \\  /    A nd           | Website:  www.openfoam.com                      |
|    \\/     M anipulation  |                                                 |
\*---------------------------------------------------------------------------*/
FoamFile
{
    version     2.0;
    format      ascii;
    arch        "LSB;label=32;scalar=64";
    class       volVectorField;
    location    "178500.00000589207";
    object      U;
}
// * * * * * * * * * * * * * * * * * * * * * * * * * * * * * * * * * * * * * //

dimensions      [0 -1 0 0 0 0 0];

internalField   nonuniform List<vector> 
30000
(
(3.4131281506236631725e-09 -1.5381674026424772996e-13 0)
(3.4132125573030109822e-09 1.2776969036484856319e-14 0)
(3.4132291362449338944e-09 -8.4664586929502747837e-14 1.2366044345967772386e-27)
(3.4132463149901017495e-09 2.4599575483727564686e-14 -1.2378308441053460401e-27)
(3.4132400969867635494e-09 -7.8563683731521137988e-14 1.5457805906656112204e-28)
(3.4132435822905271361e-09 1.9077576730176659153e-14 -1.3455856970121542165e-27)
(3.413236378307277133e-09 -8.1608722759090110515e-14 1.8113321512813658597e-27)
(3.4132364732258417283e-09 1.10888211058208571e-14 0)
(3.4132294686743869506e-09 -8.669138118050207049e-14 0)
(3.4132285576847148539e-09 2.6343113811147367343e-15 4.4356873923967348143e-27)
(3.4132220369357990826e-09 -9.2387673959064859407e-14 -5.1671969528251057559e-27)
(3.4132209270980884217e-09 -5.9147623704791630471e-15 1.1252346821583959357e-27)
(3.4132149361635215607e-09 -9.8304601991820168367e-14 -1.244720595315252857e-27)
(3.4132139726405782164e-09 -1.4458846128985020164e-14 4.0733567276511667472e-27)
(3.4132085174683153705e-09 -1.0428520350033875456e-13 -2.3643804075180733357e-27)
(3.4132078576491539646e-09 -2.294439828323911156e-14 -1.4235422102531920763e-27)
(3.4132029219907775871e-09 -1.1024848132990529022e-13 1.424566852361720431e-27)
(3.4132026381158466924e-09 -3.1339684646210457779e-14 -1.5426562993908119029e-27)
(3.4131981891622477739e-09 -1.1615454164977586606e-13 1.543701368169363016e-27)
(3.4131983069764673803e-09 -3.9618206083903631282e-14 0)
(3.4131942998552140314e-09 -1.219684243284487788e-13 0)
(3.4131948201165632352e-09 -4.7766731086896306879e-14 0)
(3.413191228260122131e-09 -1.2767517656115384702e-13 0)
(3.4131921277109009609e-09 -5.5772783712033573726e-14 0)
(3.413188901987634712e-09 -1.332558888080471766e-13 0)
(3.4131901607753310366e-09 -6.3622406181882553691e-14 0)
(3.4131872654294229512e-09 -1.3869808366198501336e-13 0)
(3.4131888532433581452e-09 -7.1302394194931222568e-14 -7.3277777055393147573e-28)
(3.4131862536662058417e-09 -1.439949303186623532e-13 1.4083711372587708844e-27)
(3.4131881415718704982e-09 -7.8805879056100213567e-14 0)
(3.4131858010565298614e-09 -1.4914317645543246546e-13 0)
(3.4131879620709189269e-09 -8.6130166813061494687e-14 0)
(3.4131858505265643579e-09 -1.5413644999344347588e-13 0)
(3.4131882542280548482e-09 -9.3268159089020289875e-14 0)
(3.4131863470515407136e-09 -1.5897580864885257684e-13 -2.5037902687226367431e-27)
(3.4131889672130192812e-09 -1.0021958889238787976e-13 2.5045758054998351234e-27)
(3.4131872387677982451e-09 -1.6365793479924141833e-13 0)
(3.4131900499370431731e-09 -1.0697778698943758454e-13 0)
(3.4131884812068384493e-09 -1.6818296659923311218e-13 0)
(3.4131914596610993135e-09 -1.1354069214072500087e-13 1.3792579947401525299e-27)
(3.413190030032888088e-09 -1.7255213395500389282e-13 1.4288716360164093044e-27)
(3.4131931599469900187e-09 -1.1990996473343030999e-13 -3.2185333680210294699e-27)
(3.4131918532054734023e-09 -1.767607709557006158e-13 -1.2050756403407352822e-43)
(3.4131951118824977344e-09 -1.2607997473295446776e-13 4.1882929594549576196e-28)
(3.4131939139348929246e-09 -1.8081065085572648281e-13 0)
(3.4131972840699354525e-09 -1.3205403798638511428e-13 0)
(3.4131961812372232477e-09 -1.8470698804124201627e-13 0)
(3.413199651016401541e-09 -1.3783477369003680044e-13 0)
(3.4131986369598857402e-09 -1.8844943234935491124e-13 1.5898511245915903497e-27)
(3.4132021921526682635e-09 -1.4341769651885547087e-13 3.2441049491746833975e-27)
(3.413201253983671789e-09 -1.9203568478520281424e-13 -1.0185576521498449766e-26)
(3.4132048804580549712e-09 -1.4880538459607243521e-13 5.652697739903607851e-27)
(3.4132040140941540547e-09 -1.9547275394003694895e-13 -2.1126809878224473213e-27)
(3.4132077015714112789e-09 -1.5399886166673021412e-13 1.6949775464482423118e-27)
(3.4132068993481393753e-09 -1.9875922396639623353e-13 -1.2300776487047207566e-27)
(3.41321063929566729e-09 -1.5899992855382901682e-13 4.6225472075483183357e-28)
(3.4132098955081516204e-09 -2.0189691644253834897e-13 0)
(3.413213678010396843e-09 -1.6380707359643198341e-13 4.676061695267184921e-28)
(3.4132129890332983429e-09 -2.0488598728640115955e-13 4.7479382029183935307e-28)
(3.4132168047936867433e-09 -1.6842377453387043302e-13 1.8104051640991544737e-27)
(3.4132161662638836938e-09 -2.0773093062467394567e-13 -3.1595875254862543693e-27)
(3.4132200091730623405e-09 -1.7285306476249444167e-13 2.3050335699582958773e-27)
(3.4132194157862077784e-09 -2.1043264920636741577e-13 0)
(3.4132232811243304182e-09 -1.7709736452224666204e-13 0)
(3.4132227332137599324e-09 -2.1299512310291429084e-13 0)
(3.413226614891361951e-09 -1.811575427442301928e-13 0)
(3.4132261114262021167e-09 -2.1542016131645335198e-13 0)
(3.4132300053046424834e-09 -1.8503527280154566758e-13 -4.8704198155433775445e-28)
(3.4132295404352370313e-09 -2.1770602223356145364e-13 -4.9171576737193965023e-28)
(3.4132334401378722209e-09 -1.8873179379346459005e-13 -1.9759360929179512247e-27)
(3.4132330136332462677e-09 -2.198573309388159647e-13 1.975063056018864874e-27)
(3.4132369144374184403e-09 -1.9224957007929574575e-13 -6.0151614283811155783e-27)
(3.4132365244281057512e-09 -2.2187611818357357646e-13 6.0122460778948376691e-27)
(3.4132404244801986935e-09 -1.9559318032015793431e-13 -2.0328572383172882215e-27)
(3.4132400696205037978e-09 -2.2376492984786243779e-13 2.0317850795414130814e-27)
(3.4132439646068963467e-09 -1.9876567028890308263e-13 0)
(3.413243646416138685e-09 -2.2552643900373941826e-13 0)
(3.4132475314475961959e-09 -2.0176806460281471517e-13 0)
(3.4132472479752251539e-09 -2.2716448308226119878e-13 0)
(3.4132511233615044324e-09 -2.0460524019849481907e-13 0)
(3.4132508735904642239e-09 -2.2867749158779517397e-13 -1.0600541801343093719e-27)
(3.4132547337706736164e-09 -2.072772130352893374e-13 1.0593373064835866437e-27)
(3.4132545177942363002e-09 -2.3006862418084780743e-13 4.9822267092075868671e-28)
(3.4132583591045637447e-09 -2.0978670935727529406e-13 -2.7327243519320960594e-27)
(3.4132581752166862644e-09 -2.3134184032269199592e-13 3.2264101397684699969e-27)
(3.4132619972379311022e-09 -2.1214098438216781036e-13 0)
(3.4132618453675139756e-09 -2.3250216927755529565e-13 0)
(3.413265647638449396e-09 -2.1434237007191547668e-13 0)
(3.4132655269502350054e-09 -2.3354766115109461635e-13 0)
(3.4132693066741211712e-09 -2.1639027423658003019e-13 0)
(3.4132692157925296646e-09 -2.3448044588371731783e-13 0)
(3.4132729695142273669e-09 -2.1828888263079000078e-13 4.9222188233998258691e-28)
(3.4132729067815271718e-09 -2.3530520306977417463e-13 4.9277190498171700709e-28)
(3.4132766333861206084e-09 -2.2004527779503138006e-13 0)
(3.4132766014336526627e-09 -2.3602543456730550227e-13 -2.2484764531985201673e-27)
(3.4132802983721947022e-09 -2.2165937322900648957e-13 2.2462967935435144349e-27)
(3.4132802957981699361e-09 -2.366418243949936505e-13 -1.1310295290919053511e-27)
(3.4132839636183906288e-09 -2.231344408245982356e-13 1.1298864285990906246e-27)
(3.4132839882115145555e-09 -2.3715662277852653556e-13 -4.8619686129656897818e-28)
(3.4132876255699956588e-09 -2.2447363388115535692e-13 -4.8387534883907113741e-28)
(3.4132876773063855061e-09 -2.3757188699637180657e-13 0)
(3.4132912804116516245e-09 -2.2568113085391728176e-13 0)
(3.4132913587971782321e-09 -2.3789305097291975199e-13 -2.2960595512440963977e-27)
(3.4132949303045883198e-09 -2.2676182110364521997e-13 2.2934570271369514899e-27)
(3.4132950346468618103e-09 -2.3812005894102031069e-13 0)
(3.4132985709428326936e-09 -2.2771698953140552749e-13 0)
(3.413298702530314257e-09 -2.3825493258670603661e-13 0)
(3.4133022023860348079e-09 -2.2854912190159566263e-13 0)
(3.413302359347023581e-09 -2.3830071908293496134e-13 -2.3203392885038993609e-27)
(3.4133058213290443919e-09 -2.2926214868382514e-13 2.3174281875818588946e-27)
(3.4133060027705017097e-09 -2.3826084220551295648e-13 -4.652730306450195137e-27)
(3.4133094286413999095e-09 -2.2986058514374116671e-13 4.646706980622986702e-27)
(3.41330963284715513e-09 -2.3813633273863736214e-13 0)
(3.4133130199484702506e-09 -2.3034731922769952004e-13 0)
(3.4133132479406915499e-09 -2.3793201828254150621e-13 0)
(3.4133165964271762628e-09 -2.3072638486427349561e-13 -2.3370456074205929555e-27)
(3.4133168478895175145e-09 -2.3764834445864594911e-13 1.1645224176546108554e-27)
(3.413320156556181839e-09 -2.3099939898390336377e-13 1.6201041768936435176e-27)
(3.4133204304013021339e-09 -2.3728747664444464841e-13 4.507472809789488839e-28)
(3.4133236988030840228e-09 -2.3116934303805900395e-13 1.1706861535600248526e-27)
(3.4133239937440917462e-09 -2.3685218383171732009e-13 -1.1689631067434022491e-27)
(3.4133272218961600378e-09 -2.3123985532680272168e-13 -4.437218166006250127e-28)
(3.4133275372742070726e-09 -2.363441876250329385e-13 -4.4176685316983676361e-28)
(3.41333072473361937e-09 -2.3121386598093807059e-13 0)
(3.4133310595921561237e-09 -2.3576615428576534237e-13 0)
(3.4133342062012294684e-09 -2.3109499389471513985e-13 0)
(3.4133345598206844952e-09 -2.3512101020246863021e-13 -4.3232857351812152005e-28)
(3.4133376654599636669e-09 -2.3088633301353244688e-13 -4.2967633448835945009e-28)
(3.4133380370030560654e-09 -2.3441006067356909558e-13 -4.2745803340738761242e-28)
(3.4133410999437306887e-09 -2.305903392324624663e-13 -4.2479016563493012059e-28)
(3.4133414894040531178e-09 -2.3363607991829572069e-13 -4.2249757998090477115e-28)
(3.4133445089527940519e-09 -2.3021040036840456992e-13 7.2966877892181059564e-42)
(3.4133449153150852937e-09 -2.3280181355067302412e-13 4.1745457063995485162e-28)
(3.4133478923072485905e-09 -2.2974910852482367181e-13 -4.1476029925143932793e-28)
(3.4133483133419959188e-09 -2.3190733703617578477e-13 -4.1233775210531482826e-28)
(3.4133512461675667468e-09 -2.2920879621619880874e-13 0)
(3.4133516808766187608e-09 -2.3095662285818597348e-13 0)
(3.4133545696771426121e-09 -2.2859263656116762093e-13 0)
(3.4133550152384696683e-09 -2.2994991608374495328e-13 0)
(3.4133578579035254907e-09 -2.2790277350302902582e-13 -3.9918827810011640409e-28)
(3.4133583130896974391e-09 -2.2888939011648829377e-13 -3.9661418411027980822e-28)
(3.4133611068361884989e-09 -2.2714226559944146176e-13 0)
(3.4133615679062657165e-09 -2.2777991601861373954e-13 3.9127547039194480019e-28)
(3.4133643126716290353e-09 -2.2632083308316629497e-13 -5.7483240392354701369e-42)
(3.413364781170751819e-09 -2.2663643447736576483e-13 -3.8590319985313980591e-28)
(3.413367482900082938e-09 -2.2546565875787887581e-13 0)
(3.4133679758663301888e-09 -2.2550839043942305476e-13 0)
(3.4133706753752980263e-09 -2.2466502177684487235e-13 0)
(3.413371277327759619e-09 -2.2454850500238798696e-13 0)
(3.4133741121019706557e-09 -2.2419015331750754623e-13 0)
(3.4133748943375240344e-09 -2.2419386153603588967e-13 0)
(3.4133777302719402527e-09 -2.2454045870548532655e-13 -3.7441800568549503686e-28)
(3.4133783316510258874e-09 -2.2466351889146349597e-13 -3.7664277314018439952e-28)
(3.4133810314100748259e-09 -2.2549515236246344879e-13 0)
(3.4133815237146669221e-09 -2.2545985061913372757e-13 3.810758595948612986e-28)
(3.413384225990152726e-09 -2.2661914338638127615e-13 3.5719802900430693646e-43)
(3.4133846950322306599e-09 -2.2631140640361520056e-13 -3.8545620318641560126e-28)
(3.4133874400613429986e-09 -2.2775810345339872703e-13 0)
(3.4133879018511868766e-09 -2.2712818268686712159e-13 0)
(3.4133906963749386126e-09 -2.2886161684784842303e-13 0)
(3.4133911512997992425e-09 -2.2788249292165577094e-13 0)
(3.4133939944606183204e-09 -2.2991640795796129613e-13 0)
(3.4133944405920320509e-09 -2.285671441399392936e-13 0)
(3.4133973307661530022e-09 -2.3091811710908219058e-13 0)
(3.4133977656194524938e-09 -2.2917801185568517344e-13 0)
(3.4134007003906422852e-09 -2.3186390583349741289e-13 0)
(3.4134011218616537675e-09 -2.2971307139920796724e-13 0)
(3.4134041003183655679e-09 -2.327525435202991e-13 0)
(3.4134045071204720501e-09 -2.3016941168972487287e-13 0)
(3.4134075285911824403e-09 -2.3358175394171029785e-13 4.1209894694470957213e-28)
(3.4134079191764039144e-09 -2.3054338788014056599e-13 4.1376387273417872419e-28)
(3.4134109824371742737e-09 -2.3434888435195109313e-13 8.3158559782220356624e-28)
(3.4134113564958449241e-09 -2.3083270913679186122e-13 1.2520902467876123007e-27)
(3.4134144617655153963e-09 -2.3505229820075615999e-13 4.1935647439846847355e-28)
(3.4134148170432818493e-09 -2.3103485568793001886e-13 0)
(3.41341796399799344e-09 -2.3569084438778791857e-13 4.2278097157756766692e-28)
(3.4134183001282546247e-09 -2.3114726981001803885e-13 4.2414190740290267535e-28)
(3.4134214886973202013e-09 -2.3626164718389489475e-13 0)
(3.413421805412730103e-09 -2.3116590531328285553e-13 -4.2730302034841325256e-28)
(3.4134250345684596452e-09 -2.3676153080298775824e-13 -9.9834948638324317664e-28)
(3.4134253302540746765e-09 -2.3108797383581237451e-13 1.7068925893427021654e-27)
(3.4134285997019674843e-09 -2.3718979544903150674e-13 -1.1385356114036859127e-27)
(3.4134288754014128864e-09 -2.3091083099655032329e-13 5.6677053864076629661e-28)
(3.4134321836972339442e-09 -2.3754303522908685346e-13 -5.675726555622661491e-28)
(3.4134324381780560992e-09 -2.3063060183844883738e-13 0)
(3.4134357855832341854e-09 -2.3781857271029608434e-13 0)
(3.4134360173631696898e-09 -2.3024330137112045001e-13 4.3820387486606315887e-28)
(3.4134394024814657029e-09 -2.3801378835265324967e-13 8.7979841503574577549e-28)
(3.4134396112498333769e-09 -2.2974689985605727836e-13 4.4044320089171697486e-28)
(3.4134430329052070033e-09 -2.3812765759605981903e-13 -3.6877968241837539546e-42)
(3.4134432198601469449e-09 -2.2913878792730990036e-13 1.1151000019105785818e-27)
(3.4134466769680382565e-09 -2.381565342994840098e-13 -1.1165007653315013162e-27)
(3.4134468408258161995e-09 -2.2841500971772711742e-13 0)
(3.4134503335431798223e-09 -2.3809856321624086276e-13 0)
(3.413450471668864865e-09 -2.2757189770242885065e-13 2.2053742744810650508e-27)
(3.4134540006430581368e-09 -2.3795190886697888066e-13 -1.7606434758303510315e-27)
(3.4134541124918116386e-09 -2.2660511691525005533e-13 8.9427773578810142228e-28)
(3.4134576752553192233e-09 -2.3771260962304002805e-13 2.6323326234801366477e-27)
(3.4134577606736962855e-09 -2.2551351415075934775e-13 -2.1861811698402553839e-27)
(3.4134613548056128203e-09 -2.3738062980639000126e-13 -1.0839749972717356448e-27)
(3.4134614169744715547e-09 -2.2429436453049400791e-13 1.0851385618725724686e-27)
(3.4134650416465026284e-09 -2.3695006118658960864e-13 1.0754962786823343169e-27)
(3.4134650764239209926e-09 -2.2294083841249263628e-13 -1.5260795024118823574e-27)
(3.4134687317004882585e-09 -2.36420179857687634e-13 -4.5076564128592916267e-28)
(3.413468739185350318e-09 -2.214504743287818353e-13 0)
(3.4134724226463454016e-09 -2.3578840134117873354e-13 0)
(3.4134724026418586849e-09 -2.1982182102555751352e-13 0)
(3.413476112921675051e-09 -2.3505229231924411664e-13 0)
(3.4134760644179442607e-09 -2.1804955783419966978e-13 0)
(3.4134797987590012158e-09 -2.3420877800519095622e-13 0)
(3.4134797221172168344e-09 -2.1613175195004220533e-13 -1.0299734435725404881e-27)
(3.4134834793067149857e-09 -2.3325644091732239001e-13 2.0549240722987309804e-27)
(3.4134833754596852812e-09 -2.1406543330409055482e-13 -5.7761891103798100258e-28)
(3.4134871512615442034e-09 -2.3219092147272503398e-13 0)
(3.4134870211374886595e-09 -2.1184742281247334043e-13 -4.4585246919816828814e-28)
(3.4134908154717456301e-09 -2.3101130814078482147e-13 0)
(3.4134906559818816768e-09 -2.0947283347321135697e-13 0)
(3.4134944660554505152e-09 -2.2971629570493256369e-13 0)
(3.4134942812540848108e-09 -2.0694074376959548152e-13 0)
(3.4134981034619937072e-09 -2.282994400193753795e-13 0)
(3.4134978911686657494e-09 -2.0424460726745841127e-13 -4.3923050313482498051e-28)
(3.4135017241812198011e-09 -2.2675931046327018682e-13 -1.923316754216458212e-41)
(3.4135014838984722685e-09 -2.0138331126832525571e-13 1.3086827256863723151e-27)
(3.4135053258843498475e-09 -2.2509347025449498151e-13 8.7419236706494050405e-28)
(3.4135050557507794486e-09 -1.9835273305873829464e-13 0)
(3.4135089027447116176e-09 -2.2330205484102683947e-13 0)
(3.4135086083241072058e-09 -1.9515196966814135596e-13 8.5790690035904112057e-28)
(3.413512455828779149e-09 -2.213804151233571651e-13 4.2977814111411810825e-28)
(3.4135121358339790352e-09 -1.9177697660226372741e-13 0)
(3.413515982044107943e-09 -2.1932770392152451583e-13 4.2546796362305071221e-28)
(3.4135156371684549167e-09 -1.8822667188655939368e-13 -8.3980851628134091229e-28)
(3.4135194798067484563e-09 -2.171401848921510845e-13 -1.2621286330962962891e-27)
(3.4135191106225894628e-09 -1.8449633010408249797e-13 -4.1468555907775383955e-28)
(3.4135229455380754087e-09 -2.1481655997074936665e-13 0)
(3.4135225564821284938e-09 -1.805846460000410794e-13 0)
(3.413526379271175611e-09 -2.123520620442987618e-13 1.6709521228417336646e-27)
(3.4135259696571943679e-09 -1.764873343895987627e-13 -1.6714751282184558959e-27)
(3.4135297765053241953e-09 -2.0974444820149355834e-13 0)
(3.4135293479530721926e-09 -1.7220236584294983894e-13 0)
(3.4135331365042874028e-09 -2.0699388383869325962e-13 -3.9697584466351725859e-28)
(3.4135326910366724654e-09 -1.6772777417890024151e-13 -3.8891623757301915271e-28)
(3.4135364579777821785e-09 -2.0409747478804076414e-13 -3.8981695974120582391e-28)
(3.4135359985788542302e-09 -1.6306321038971854633e-13 -3.811972797810727626e-28)
(3.4135397393508938593e-09 -2.010549906813972082e-13 0)
(3.4135392716729839936e-09 -1.5820640732131436718e-13 -3.7294767352612883452e-28)
(3.4135429820368572128e-09 -1.9786129659335289606e-13 -3.739609780094655136e-28)
(3.413542508527706186e-09 -1.5315395228123472283e-13 -1.4349187532635171496e-27)
(3.4135461859626710685e-09 -1.9451397877911608691e-13 7.0452538672789828115e-28)
(3.4135457101403222801e-09 -1.4790299733772555579e-13 -1.0644824494899462767e-27)
(3.4135493499629777369e-09 -1.9101094063566539813e-13 -7.1201966955990561361e-28)
(3.4135488782860454154e-09 -1.4245363132039988068e-13 -3.4494177158920955954e-28)
(3.4135524757244559759e-09 -1.8735185122430357949e-13 -2.975175065859232605e-27)
(3.4135520172686425525e-09 -1.3680728929822431058e-13 2.294361033620525336e-27)
(3.4135555718419503423e-09 -1.8353267474339614992e-13 -1.2642530028643059025e-27)
(3.4135551270575683928e-09 -1.3095961923874929928e-13 1.2641567859515160384e-27)
(3.4135586355303949986e-09 -1.7955439228715124539e-13 0)
(3.4135582184319975462e-09 -1.2491150008364303783e-13 0)
(3.4135616765613762642e-09 -1.7541372232989509817e-13 2.3205679759620013452e-27)
(3.4135612977182176773e-09 -1.1866389565974086717e-13 -2.3201906516437620412e-27)
(3.4135647064027379679e-09 -1.7110820460296984427e-13 0)
(3.4135643732380855425e-09 -1.122106200969753127e-13 -2.8706632965663257843e-28)
(3.413567728037867462e-09 -1.6663686131634085991e-13 -2.891842741163006822e-28)
(3.4135674568601325001e-09 -1.0555775427357722145e-13 0)
(3.4135707592116942962e-09 -1.6199579157182739585e-13 0)
(3.4135705645904249987e-09 -9.870041830188219893e-14 0)
(3.413573813651722864e-09 -1.571823531946010467e-13 0)
(3.4135737111150481659e-09 -9.1643016419298328113e-14 0)
(3.4135769133598403517e-09 -1.5219668776503318583e-13 0)
(3.4135769232585775661e-09 -8.4380103421269320977e-14 -4.8864406455490145148e-27)
(3.4135800780499242475e-09 -1.4703307048155366023e-13 5.115078310207605874e-27)
(3.4135802239728577624e-09 -7.691537464206324525e-14 -2.1526585859124903463e-28)
(3.4135833375919313461e-09 -1.4169194866527858967e-13 -1.7467060953796228081e-27)
(3.413583651917752943e-09 -6.9248317747825814058e-14 1.3277526484527977574e-27)
(3.4135867264987261452e-09 -1.3616398901015581287e-13 0)
(3.41358724262926441e-09 -6.1379601021731946007e-14 0)
(3.4135902907423042777e-09 -1.3044803569395194771e-13 0)
(3.4135910495638689394e-09 -5.3307510685418264892e-14 0)
(3.4135940822882776784e-09 -1.2453719124286073732e-13 -1.7134390346944530655e-28)
(3.4135951368546487617e-09 -4.5032725149521611153e-14 -1.4933066996005705364e-28)
(3.4135981771806756901e-09 -1.1842484231121904499e-13 -1.0448983603876710573e-27)
(3.4135995917099323694e-09 -3.6561518970143541452e-14 9.1208166781803882032e-28)
(3.4136026639042078494e-09 -1.121126757423044608e-13 -1.3847690364102280123e-28)
(3.4136045290360185992e-09 -2.7892176699835245773e-14 0)
(3.413607668596382369e-09 -1.0557642754965329652e-13 0)
(3.4136101120743502245e-09 -1.9015025274497856241e-14 0)
(3.413613386853975464e-09 -9.8790176653203127982e-14 0)
(3.4136165944449778103e-09 -9.9277872563446513229e-15 0)
(3.4136201145042547778e-09 -9.1729370608359057809e-14 -9.1077294899596712555e-29)
(3.4136243874278859785e-09 -6.353152975783913721e-16 -1.3276167490190583106e-28)
(3.4136283435382638051e-09 -8.4359439255038566359e-14 -7.7438850928758362994e-29)
(3.4136342048425903673e-09 8.8331103118128516803e-15 -5.3034145498224489651e-29)
(3.4136389681031093921e-09 -7.6630651288340916906e-14 -6.6260546893822934412e-29)
(3.4136474509892618022e-09 1.8385287488245449369e-14 0)
(3.4136538320913524657e-09 -6.8509928700123548221e-14 -5.9110853293077774366e-29)
(3.4136673843284551712e-09 2.7606529222662457903e-14 -3.7991730728244954341e-29)
(3.4136775232344323859e-09 -6.0317790576472572771e-14 0)
(3.413701933372965871e-09 3.4368852149361675405e-14 -4.0841548212780144038e-29)
(3.4137222358940496906e-09 -5.564628946693619887e-14 -6.7855975196380029474e-29)
(3.4138010689527450372e-09 2.2548576979210782349e-14 -6.6054451802962189034e-29)
(3.4138850970307629936e-09 -8.9380555991129701828e-14 -9.2518723620420086745e-29)
(9.7465160974605860864e-09 -2.0268337460807686812e-13 0)
(9.7465920766487014335e-09 4.862677030915021956e-15 0)
(9.746628628566197981e-09 -8.7490000388327889069e-14 1.0216054855478707258e-27)
(9.7466458801378789037e-09 5.5219136504523181328e-14 -8.4310447671644955646e-28)
(9.7466490210836378506e-09 -6.2325014638794859728e-14 -1.9160571342321605474e-28)
(9.7466458611916510803e-09 6.3975822894376040394e-14 -1.4679731577732929654e-27)
(9.746640102657463913e-09 -5.5059344634633977791e-14 1.1116291568184454284e-27)
(9.7466306296205759668e-09 6.4332426393676460081e-14 0)
(9.7466219355367045921e-09 -5.2138409853657152787e-14 6.9969693411994503587e-28)
(9.7466109224818090948e-09 6.2609826589155987265e-14 5.2492965564941755795e-28)
(9.7466017701742708812e-09 -5.0579549062721355387e-14 -2.4662189240021617311e-27)
(9.7465909678546677124e-09 6.0232027072402367427e-14 2.3067227857885056272e-27)
(9.7465823563769284756e-09 -4.9568295648047512107e-14 -1.5542724321899239467e-27)
(9.7465724671923962013e-09 5.7623132212300028906e-14 5.5533378457963443355e-28)
(9.7465648264126939823e-09 -4.8792933604703291243e-14 -1.1274894448103052134e-27)
(9.7465561321882879302e-09 5.4953613195115563981e-14 0)
(9.7465496394412883648e-09 -4.8106293694909352295e-14 0)
(9.7465422229268798479e-09 5.2307762236771582588e-14 -9.2031589963824253216e-28)
(9.7465369341496378844e-09 -4.7433299464102722353e-14 9.2017612810137095815e-28)
(9.746530786826748901e-09 4.9734173129163117528e-14 0)
(9.7465266845531308382e-09 -4.6730762102046789655e-14 0)
(9.7465217481473570726e-09 4.7256998652033943329e-14 0)
(9.7465187707595690052e-09 -4.5976855789105933228e-14 0)
(9.7465149677097429492e-09 4.4883485067587990781e-14 0)
(9.7465130412325131532e-09 -4.5161051069878813881e-14 0)
(9.7465102818692620123e-09 4.2629560321379907809e-14 0)
(9.7465093224180507132e-09 -4.4275346177131667228e-14 0)
(9.7465075089291976926e-09 4.0497985506705233292e-14 -3.9938200376376075872e-28)
(9.7465074309006946451e-09 -4.331799073445821183e-14 -4.2130797977115599688e-28)
(9.7465064684919619315e-09 3.8488280779475027829e-14 0)
(9.7465071890208991642e-09 -4.2292448916130652797e-14 0)
(9.7465069921630786604e-09 3.6598812626165149055e-14 0)
(9.7465084312648380675e-09 -4.1204358218941492226e-14 0)
(9.7465089143588348407e-09 3.482645097976833359e-14 0)
(9.7465109932983654739e-09 -4.0055923906465516965e-14 -1.2835198002264884983e-27)
(9.7465120829946318833e-09 3.3168914177016555326e-14 1.2828555151194779898e-27)
(9.7465147377860375488e-09 -3.885527994121861869e-14 0)
(9.7465163611355319169e-09 3.1618811452776259946e-14 0)
(9.7465195290165746271e-09 -3.7606128197151328504e-14 0)
(9.7465216237311227929e-09 3.017313346251911671e-14 6.8708616909417468779e-28)
(9.7465252472298229831e-09 -3.6317301239553318615e-14 -6.8665738694040145681e-28)
(9.7465277600322585935e-09 2.8827927960526772326e-14 4.9238510250659943306e-28)
(9.7465317860377347207e-09 -3.4991720473755153493e-14 4.4640669662483503106e-44)
(9.7465346681433192558e-09 2.7577628187287309629e-14 -5.0264263668422916461e-28)
(9.7465390526176153624e-09 -3.3635195603311034948e-14 1.456613510869922956e-27)
(9.7465422607540841793e-09 2.6418875806001031977e-14 -1.4555503373601988862e-27)
(9.7465469656400463412e-09 -3.2254043835163404553e-14 -1.2271085378954805012e-28)
(9.7465504583394340886e-09 2.5347024132034331741e-14 -1.2088434479442725792e-28)
(9.7465554423766862011e-09 -3.0850768135250722599e-14 8.8002949251501564042e-28)
(9.7465591864665489215e-09 2.4358330251796165967e-14 1.537264242958490755e-27)
(9.7465644217179078655e-09 -2.9429775657794206002e-14 -3.4174274729438010369e-27)
(9.7465683864676917091e-09 2.3450126135319968883e-14 4.1717270982608290264e-27)
(9.7465738447441309561e-09 -2.7994569471740355082e-14 -1.0085087802382895915e-27)
(9.746578005068877435e-09 2.261670509228583565e-14 6.7217992552952865572e-28)
(9.7465836581413729654e-09 -2.6550383573919594127e-14 -1.4625086734764874315e-27)
(9.7465879902754617795e-09 2.185665912926648066e-14 -5.4929314685853881863e-28)
(9.7465938197538744802e-09 -2.5099651656415660218e-14 1.1855556114689218089e-28)
(9.7465983034024706594e-09 2.116566112298658781e-14 -3.2069736433055597109e-28)
(9.7466042848979244542e-09 -2.3645010685503246212e-14 -4.4530786577303502274e-28)
(9.7466089042125502103e-09 2.0540905189817895801e-14 8.249092268552790123e-28)
(9.7466150217200415777e-09 -2.218801505561190647e-14 -2.221045354741679603e-27)
(9.7466197618779776756e-09 1.9981248698798898978e-14 2.6532934206325202958e-28)
(9.7466259995351371561e-09 -2.0730456656223243443e-14 0)
(9.7466308441144016365e-09 1.9483265518891367993e-14 -1.13796810838294897e-28)
(9.7466371901134592508e-09 -1.9275056420768436831e-14 -1.1396747174686634084e-28)
(9.7466421243963616554e-09 1.904454320271837942e-14 0)
(9.7466485630629048858e-09 -1.7823345260047369976e-14 0)
(9.7466535801486876457e-09 1.8662407510378965547e-14 5.7311932142887423637e-28)
(9.7466601029760076162e-09 -1.6377294104830876874e-14 5.7815246636061201465e-28)
(9.7466651915114265727e-09 1.8334781480183570927e-14 -8.6799419590582715526e-28)
(9.7466717900316753526e-09 -1.4939097907472632148e-14 8.6691324871680369972e-28)
(9.7466769422311676138e-09 1.8059179361340227585e-14 -1.7493884460360798571e-27)
(9.7466836049057464127e-09 -1.3510272200572579433e-14 1.7471398453161153941e-27)
(9.7466888132934074581e-09 1.7832743380284854242e-14 -8.8078088989732733492e-28)
(9.7466955306380304629e-09 -1.2091598247794240597e-14 8.7961369527299832152e-28)
(9.7467007882388549917e-09 1.7653280360835727438e-14 0)
(9.746707553992198408e-09 -1.0684841665078321252e-14 0)
(9.7467128529672141307e-09 1.7519279612772782421e-14 0)
(9.7467196592168454132e-09 -9.2890080609701184615e-15 0)
(9.7467249965343741735e-09 1.7428128075444931561e-14 0)
(9.7467318347651753282e-09 -7.9069086447327007713e-15 -4.4872482894130945362e-28)
(9.7467372044394867506e-09 1.737855918815638776e-14 -1.5420247767564737264e-30)
(9.7467440714046365613e-09 -6.5384677324312436114e-15 -1.3036716485365845511e-28)
(9.7467494690819730253e-09 1.736824831924250979e-14 -1.9299934588388915239e-27)
(9.7467563573874892848e-09 -5.1841973346500729342e-15 1.3515739598977562193e-27)
(9.7467617776144194109e-09 1.7395311537950705391e-14 0)
(9.7467686825072412558e-09 -3.8449706346015287283e-15 0)
(9.7467741222252564574e-09 1.7457940891771584851e-14 0)
(9.7467810374833197395e-09 -2.5211510688055834948e-15 9.0811070251886312979e-28)
(9.7467864901592300789e-09 1.7554851229444980194e-14 2.1868810633478499993e-30)
(9.7467934136337164358e-09 -1.2139431719654473215e-15 -9.073428859163662674e-28)
(9.7467988787743469057e-09 1.76852119152482448e-14 -5.6834678916678388037e-28)
(9.7468058050211472835e-09 7.563285099746125603e-17 -5.685455079009307551e-28)
(9.7468112797845435271e-09 1.7846239321866984073e-14 0)
(9.7468182037499483427e-09 1.3493855592018293853e-15 -8.1946238380872918377e-28)
(9.7468236833563431434e-09 1.8034728608186092196e-14 9.9940395350534766172e-28)
(9.7468306013541725437e-09 2.6051702181214536248e-15 -1.3659702025863030355e-27)
(9.7468360813717852967e-09 1.8250242036169100684e-14 1.3635570427258365861e-27)
(9.7468429906483004287e-09 3.8432057076830882749e-15 5.5840693405622186233e-28)
(9.7468484690304530335e-09 1.8491549110560102929e-14 5.5532245333972435871e-28)
(9.7468553652148993692e-09 5.0638605093112361929e-15 0)
(9.7468608411853489955e-09 1.875694314917997285e-14 0)
(9.7468677215657636114e-09 6.2659650258974030796e-15 -9.0772554359719113367e-28)
(9.7468731905612244807e-09 1.9045298446595873448e-14 9.0602236034003044389e-28)
(9.746880049799984592e-09 7.4488198750034562348e-15 9.0590381644612477362e-28)
(9.746885511848901791e-09 1.9354326608345149382e-14 -9.0417141823655294524e-28)
(9.7468923464860200832e-09 8.6122809861231795773e-15 0)