/*--------------------------------*- C++ -*----------------------------------*\
| =========                 |                                                 |
| \\      /  F ield         | OpenFOAM: The Open Source CFD Toolbox           |
|  \\    /   O peration     | Version:  2406                                  |
|   \\  /    A nd           | Website:  www.openfoam.com                      |
|    \\/     M anipulation  |                                                 |
\*---------------------------------------------------------------------------*/
FoamFile
{
    version     2.0;
    format      ascii;
    arch        "LSB;label=32;scalar=64";
    class       volVectorField;
    location    "178500.00000589207";
    object      v1;
}
// * * * * * * * * * * * * * * * * * * * * * * * * * * * * * * * * * * * * * //

dimensions      [0 -1 0 0 0 0 0];

internalField   nonuniform List<vector> 
30000
(
(9.5890602510554555471e-08 -3.337836286161304912e-11 0)
(9.5924177729619965878e-08 -1.2639102722680392593e-11 0)
(9.590878299356517909e-08 -3.2065712167501823767e-11 -1.3649448903063974763e-15)
(9.5918274681708064333e-08 -2.5024181423894631965e-11 1.3713093987808558026e-15)
(9.5910365935922679586e-08 -3.5421260077904124613e-11 -1.6913019617493208326e-16)
(9.5915327372105495164e-08 -3.3968282669200169681e-11 1.0458700844240871235e-15)
(9.5910678379265197001e-08 -4.166786759629467683e-11 -1.5597151527489196504e-15)
(9.591397644450334286e-08 -4.252738942358477341e-11 0)
(9.5910769073008681568e-08 -4.9097699152374979544e-11 0)
(9.5913207774510836435e-08 -5.1071012446106905852e-11 -2.989394710146684926e-15)
(9.591076258788119335e-08 -5.7050305359837700648e-11 3.3726374384243564244e-15)
(9.5912674116734324014e-08 -5.9626471158100791721e-11 -7.1165703247806094314e-16)
(9.5910689688113209163e-08 -6.5246270573170855626e-11 7.1497641658092634939e-16)
(9.5912243105266118215e-08 -6.8178434391975629161e-11 -2.3240630647446129696e-15)
(9.5910572605492145514e-08 -7.3548987242863857158e-11 1.2741887831808040454e-15)
(9.5911859278616450069e-08 -7.6701929500238340925e-11 7.250261427137382867e-16)
(9.5910417202216417738e-08 -8.1882304363015299056e-11 -7.2840681768622000254e-16)
(9.5911497277840922333e-08 -8.5174204432429304538e-11 7.3180430321255960977e-16)
(9.5910228624951664908e-08 -9.0200358800834789713e-11 -7.3521658360754993068e-16)
(9.5911147041588915596e-08 -9.3572288254976778124e-11 0)
(9.5910003484192395855e-08 -9.8465951957803513262e-11 0)
(9.5910791294572635396e-08 -1.0188405705039715239e-10 0)
(9.5909759477167953252e-08 -1.0665844474373440289e-10 0)
(9.5910434112898668297e-08 -1.1009066953123611706e-10 0)
(9.5909487067098993869e-08 -1.1475585468545757138e-10 0)
(9.5910067604319025883e-08 -1.1818692600213102774e-10 0)
(9.5909193497573729587e-08 -1.2274402117675732556e-10 0)
(9.590968987932509899e-08 -1.2615943433879012451e-10 2.1419571131078746956e-16)
(9.5908878729423914322e-08 -1.306128809742566442e-10 -5.5424920781779096702e-16)
(9.5909302311118787243e-08 -1.3400067766700062746e-10 0)
(9.590854054778908554e-08 -1.3835546050068285145e-10 0)
(9.5908903627751133104e-08 -1.4170793449116858131e-10 0)
(9.5908183940649665335e-08 -1.459605263233420701e-10 0)
(9.590848958773259205e-08 -1.4927129063230738112e-10 0)
(9.5907809942884700626e-08 -1.5342464108446644543e-10 7.920374513979260267e-16)
(9.5908065347090939207e-08 -1.5669025970863529571e-10 -7.9573058883317592321e-16)
(9.5907418110123951914e-08 -1.6074199821785355822e-10 0)
(9.5907627486827499107e-08 -1.6395626705253056238e-10 0)
(9.5907011376880904178e-08 -1.6790965239222200587e-10 0)
(9.5907177238643638238e-08 -1.7106567050144821427e-10 -4.0533939203351228694e-16)
(9.5906585462244173088e-08 -1.7492549765811711127e-10 -4.0722994372640105142e-16)
(9.5906718564426369258e-08 -1.7802033599470732005e-10 9.873916054760313724e-16)
(9.5906149438643260974e-08 -1.8178282202105350943e-10 1.3065415038856259332e-36)
(9.5906246973759191897e-08 -1.8481477990931218221e-10 -1.6913476807949789012e-16)
(9.5905697450715123097e-08 -1.8848153263425428992e-10 0)
(9.5905762136073165105e-08 -1.9145039983903881492e-10 0)
(9.5905227068640334363e-08 -1.9502223225459622584e-10 0)
(9.5905266409345648409e-08 -1.9792575894564497603e-10 0)
(9.5904750501270793315e-08 -2.0140199784199963702e-10 -4.2267279141020420318e-16)
(9.5904765320734470343e-08 -2.0423836172097707245e-10 -8.4928807050566397552e-16)
(9.5904259753559588735e-08 -2.076186307140092252e-10 2.7288799746273120185e-15)
(9.5904249765043201643e-08 -2.1038838041956472672e-10 -1.3761829892398215486e-15)
(9.5903759002313388224e-08 -2.1367609664822802359e-10 5.9974801127768290043e-16)
(9.5903726780168108526e-08 -2.1637520518982688503e-10 -4.3262069703965636291e-16)
(9.5903247328520515487e-08 -2.1957084217600077535e-10 2.6550202002482166251e-16)
(9.5903196546437582085e-08 -2.2220077544521983881e-10 -1.6913601591633042521e-16)
(9.5902726825993780979e-08 -2.2530408942380010784e-10 0)
(9.5902657541944181724e-08 -2.2786187471134256088e-10 -1.6913621720090278514e-16)
(9.5902198510241091043e-08 -2.3087420068161571527e-10 -1.6913631714282401698e-16)
(9.5902109316062634029e-08 -2.3336190864915092253e-10 -4.4486767834724005655e-16)
(9.5901659845098907559e-08 -2.3628424929512744517e-10 7.2474778851794601051e-16)
(9.5901554630970834302e-08 -2.3870187648054409917e-10 -6.1816291353520258123e-16)
(9.5901110587262058919e-08 -2.4153193910420625536e-10 0)
(9.5900992161164393441e-08 -2.43881347368711077e-10 0)
(9.5900555683006413321e-08 -2.4662064169590743601e-10 0)
(9.5900423988012122645e-08 -2.4890010433075064616e-10 0)
(9.5899997064199321191e-08 -2.5155248098893031105e-10 0)
(9.5899855153832229612e-08 -2.5376174545988975426e-10 1.691371960079143261e-16)
(9.589943109773682136e-08 -2.5632522153168086828e-10 1.6913729140745857708e-16)
(9.5899278271369881084e-08 -2.5846563442743435023e-10 4.6605448727518236358e-16)
(9.589885918716265859e-08 -2.609421440479795025e-10 -4.6822762097079890571e-16)
(9.5898695660631511279e-08 -2.630115669412073994e-10 1.4112342332194290016e-15)
(9.5898280083276573032e-08 -2.6540322252072104713e-10 -1.4178145811152274741e-15)
(9.5898109365596573618e-08 -2.6740343801917493465e-10 4.7480906080201317873e-16)
(9.5897696693132935583e-08 -2.6971034484065536848e-10 -4.7702301560171722212e-16)
(9.5897518216830496464e-08 -2.7164369274276625307e-10 0)
(9.5897111894284091934e-08 -2.7386587639342811894e-10 0)
(9.5896922911180098979e-08 -2.7573073088305798971e-10 0)
(9.5896520876531777105e-08 -2.7787305702379658358e-10 0)
(9.589632812604240607e-08 -2.7966960623298298771e-10 0)
(9.5895930252314476817e-08 -2.8172941021483899469e-10 2.4526353992538107431e-16)
(9.5895729549146464949e-08 -2.8346035683892253964e-10 -2.4640716256494175387e-16)
(9.5895337357041491015e-08 -2.8543914052491392082e-10 -1.6913858144004192404e-16)
(9.5895127295057928656e-08 -2.8710303118614998609e-10 5.7699380086348432696e-16)
(9.5894738492779841954e-08 -2.89003796992486691e-10 -7.4961156150703758746e-16)
(9.5894522663302262284e-08 -2.9060304560867090507e-10 0)
(9.5894137853152805559e-08 -2.9242778041309144185e-10 0)
(9.5893919937576384188e-08 -2.9396193768071051252e-10 0)
(9.5893538668603752823e-08 -2.957087565861678263e-10 0)
(9.5893318183114043481e-08 -2.9717946944262576624e-10 0)
(9.5892938528056086072e-08 -2.9885089817644108409e-10 0)
(9.5892712995885684654e-08 -3.0025905243232760248e-10 -1.6913936746890629673e-16)
(9.5892333443860934063e-08 -3.0185626445478441163e-10 -1.6913945279131858981e-16)
(9.5892104399464393449e-08 -3.0320493853818003482e-10 0)
(9.5891731876490145485e-08 -3.0472737139883718308e-10 5.235411364712386203e-16)
(9.5891497492146376299e-08 -3.0601517045947653247e-10 -5.2598232074426166385e-16)
(9.5891128696452772763e-08 -3.0746598465547594166e-10 2.6421770562859360748e-16)
(9.5890893024451965616e-08 -3.0869330814885758038e-10 -2.6544970835522758356e-16)
(9.5890525318515628097e-08 -3.100747426079218694e-10 1.6913995647547863955e-16)
(9.5890289627747548689e-08 -3.1124183015569248984e-10 1.6914003906471264745e-16)
(9.5889924035365752353e-08 -3.1255473258654703913e-10 0)
(9.5889682545323164741e-08 -3.1366314385957558141e-10 0)
(9.5889319273020554814e-08 -3.1491021206423878912e-10 5.4339444275206021798e-16)
(9.5889080800110013536e-08 -3.1596008120413261564e-10 -5.4592819965345666521e-16)
(9.5888719409071616102e-08 -3.171408109010286533e-10 0)
(9.5888477816901564591e-08 -3.1813507351128053567e-10 0)
(9.5888122745089154435e-08 -3.1924931008137217228e-10 0)
(9.588787820780903725e-08 -3.2018894874235385627e-10 0)
(9.5887526516384046814e-08 -3.2123974780243510038e-10 5.5877689193134739524e-16)
(9.588727827058527674e-08 -3.2212374036694852102e-10 -5.6138237460630962635e-16)
(9.5886930140484875576e-08 -3.2311380413151048082e-10 1.1280010591871017088e-15)
(9.5886684251759230889e-08 -3.2394416243690514793e-10 -1.1332607384249465743e-15)
(9.5886336372170584116e-08 -3.2487259512941599064e-10 0)
(9.5886088265400321228e-08 -3.2565125474522099321e-10 0)
(9.5885744871966407861e-08 -3.2652059498959452174e-10 0)
(9.5885496205814726338e-08 -3.2724777009082631781e-10 5.7727424343552142437e-16)
(9.5885158190487802258e-08 -3.2805820397153963575e-10 -2.8998285753574921274e-16)
(9.5884907391559053553e-08 -3.2873560346508216551e-10 -4.6047672294889256008e-16)
(9.588457340030345715e-08 -3.2948824370617387749e-10 -1.6914153742369194883e-16)
(9.5884321795751891727e-08 -3.3011595813080511981e-10 -2.9405888343854799542e-16)
(9.588399069649810989e-08 -3.3081360315854944166e-10 2.954300305587800522e-16)
(9.5883739526503192589e-08 -3.3139240894999622775e-10 1.6914176213463367438e-16)
(9.588341141249688702e-08 -3.3203538769896754408e-10 1.69141836344058413e-16)
(9.5883160522579303255e-08 -3.3256678269279719786e-10 0)
(9.5882834757114688114e-08 -3.3315604354210246908e-10 0)
(9.5882584971283216452e-08 -3.3364139591937517316e-10 0)
(9.5882261655916881902e-08 -3.3417905174511119464e-10 1.691421297540520623e-16)
(9.5882014069126010472e-08 -3.3461963670838972201e-10 1.6914220225754024426e-16)
(9.5881693495211098521e-08 -3.3510589678067026561e-10 1.6914227442446750306e-16)
(9.5881444645529426655e-08 -3.3550292163213194528e-10 1.6914234625657105834e-16)
(9.5881128812111563421e-08 -3.3593903620581764986e-10 1.6914241775523738243e-16)
(9.5880878154695537187e-08 -3.3629296952918888498e-10 -1.9446705595432790534e-30)
(9.5880567555459908573e-08 -3.3668168541674592695e-10 -1.6914255975875376844e-16)
(9.5880318882079859637e-08 -3.3699243039368163095e-10 1.6914263026667612312e-16)
(9.5880010179556153952e-08 -3.3733310445286628452e-10 1.6914270044731828132e-16)
(9.5879760955955850632e-08 -3.3760297605849414318e-10 0)
(9.5879455673262170016e-08 -3.3789910158853301739e-10 0)
(9.5879209930310882316e-08 -3.3812732251737003213e-10 0)
(9.5878905577618640795e-08 -3.3837871195836635038e-10 0)
(9.5878661731302156322e-08 -3.385676978795945587e-10 1.6914304649543660925e-16)
(9.5878362503570030199e-08 -3.3877499397700079647e-10 1.6914311474445327199e-16)
(9.58781186442936637e-08 -3.3892587950642503723e-10 0)
(9.587782109182285067e-08 -3.3909072994447127198e-10 -1.6914325029382293391e-16)
(9.5877580302324645732e-08 -3.3920519795154752512e-10 1.6450616411556691307e-30)
(9.5877286312154415689e-08 -3.3932795201489944843e-10 1.6914338458799220311e-16)
(9.5877045016871026847e-08 -3.3940625120125413661e-10 0)
(9.58767550978242356e-08 -3.3948891089417101024e-10 0)
(9.5876516192550636541e-08 -3.3953240911325746994e-10 0)
(9.587622842565022664e-08 -3.3957524123102380753e-10 0)
(9.5875989924701783078e-08 -3.3958442039148759834e-10 0)
(9.5875704572186269788e-08 -3.3958882259455547059e-10 0)
(9.5875469145129722409e-08 -3.395645544612948399e-10 1.6914384565741734756e-16)
(9.5875180633686676893e-08 -3.395288143517338594e-10 1.6914391141348751192e-16)
(9.5874940072367315954e-08 -3.3947127163876136264e-10 0)
(9.5874650406993961922e-08 -3.3939607178292991276e-10 -1.6914404384697468084e-16)
(9.5874406055127768705e-08 -3.3930346951141088878e-10 -1.0329621126451567174e-31)
(9.5874117501461480727e-08 -3.391890365551943017e-10 1.6914417751847239638e-16)
(9.5873870958190636358e-08 -3.3905938674009375587e-10 0)
(9.5873580896504343826e-08 -3.3890339226777954207e-10 0)
(9.5873330710668140564e-08 -3.3873601274229741556e-10 0)
(9.5873037312685656356e-08 -3.3853674869826824754e-10 0)
(9.5872783825775181e-08 -3.3833213493567544456e-10 0)
(9.5872489333223396897e-08 -3.3808809078591240534e-10 0)
(9.587223418014408362e-08 -3.3784521456038422536e-10 0)
(9.5871938547863160107e-08 -3.3755511495656916587e-10 0)
(9.5871679436514022198e-08 -3.3727270740126951015e-10 0)
(9.58713824055424689e-08 -3.3693703958146886549e-10 0)
(9.5871120219832972648e-08 -3.3661276107607644615e-10 0)
(9.5870823288792288589e-08 -3.3623019267494302863e-10 0)
(9.5870558192970367803e-08 -3.3586331997443760636e-10 -1.691450773694500245e-16)
(9.5870260174593145247e-08 -3.3543170669154417691e-10 -1.6914514886931051144e-16)
(9.5869990686183575293e-08 -3.3502114440755668111e-10 -3.382904414050712101e-16)
(9.5869693207472338371e-08 -3.3453995117133536124e-10 -5.0743587861239146901e-16)
(9.5869421177250724912e-08 -3.3408468448557103411e-10 -1.6914536537553456528e-16)
(9.5869120839279229075e-08 -3.3355334520587079149e-10 0)
(9.5868846656122434837e-08 -3.3305278218099763188e-10 -1.6914551140096940645e-16)
(9.5868544915070852134e-08 -3.3246914009871732196e-10 -1.6914558492483817456e-16)
(9.5868269607119843117e-08 -3.3192194696013066553e-10 0)
(9.5867967503569062456e-08 -3.3128485039716127182e-10 1.6914573300267979646e-16)
(9.5867689244680454028e-08 -3.3068954221713876688e-10 3.1686448616908364416e-16)
(9.5867384500718137597e-08 -3.2999820882261710613e-10 -4.4109939465514829099e-16)
(9.5867104061521486083e-08 -3.2935467999859712017e-10 2.9270148879096469042e-16)
(9.5866801534186675263e-08 -3.2860697359673010426e-10 -1.4567163288769647501e-16)
(9.5866516233727596685e-08 -3.2791374048536370395e-10 1.4499554305500817141e-16)
(9.5866214823060182737e-08 -3.2710876440742709259e-10 0)
(9.5865927705030222348e-08 -3.2636487929719273667e-10 0)
(9.5865625166453484373e-08 -3.2550069085097605068e-10 -1.6914633928677087832e-16)
(9.5865334656380004468e-08 -3.2470536475830257054e-10 -3.3829283334236707585e-16)
(9.5865032197763984042e-08 -3.2378126861905434545e-10 -1.6914649441658996715e-16)
(9.5864736986626809583e-08 -3.229333409468954953e-10 1.410975146502223353e-30)
(9.5864439188180805044e-08 -3.219487348582556845e-10 -2.8070095433222394972e-16)
(9.5864138618874989547e-08 -3.210450744201563937e-10 2.7939816766407118485e-16)
(9.5863843205084533947e-08 -3.2000069208322159982e-10 0)
(9.5863539589247164369e-08 -3.1903975550526167841e-10 0)
(9.5863242865154721419e-08 -3.1793314373892123546e-10 -5.5105298568189699266e-16)
(9.586294057248566378e-08 -3.1691623226511228991e-10 3.7934839479059197613e-16)
(9.5862642327893032832e-08 -3.1574285832248646438e-10 -3.3829425914809879686e-16)
(9.5862338035567969194e-08 -3.146697150221909627e-10 -7.1256390474119088217e-16)
(9.5862039081103786099e-08 -3.1343063679590367519e-10 5.4089459357235085175e-16)
(9.5861730239490983902e-08 -3.1229933253279432109e-10 2.6919235970626469459e-16)
(9.5861439343302034854e-08 -3.109938298362928702e-10 -2.6794298662085477854e-16)
(9.5861126728414858011e-08 -3.0979977290730996354e-10 -2.6669967252041279621e-16)
(9.5860835773311247001e-08 -3.0842742354893489723e-10 4.3460949017068077448e-16)
(9.586052182019620063e-08 -3.0717234965202270384e-10 1.6914770506361454845e-16)
(9.5860232080312587541e-08 -3.0572866455167073053e-10 0)
(9.5859916096102372086e-08 -3.0441324632813661509e-10 0)
(9.5859628692972411013e-08 -3.0289871255357789598e-10 0)
(9.5859311496278021412e-08 -3.0152155964987810401e-10 0)
(9.5859025432078927508e-08 -2.9993313483363916589e-10 0)
(9.5858704443665266445e-08 -2.9849389946381441574e-10 0)
(9.5858421366907172976e-08 -2.968301251256434475e-10 2.557651807117436803e-16)
(9.5858098799418494218e-08 -2.9532798174189606237e-10 -5.0915638195167672281e-16)
(9.5857820861375338593e-08 -2.9358850261961312362e-10 8.4248236923482464576e-17)
(9.5857491350846172309e-08 -2.9201913650944188465e-10 0)
(9.5857221490274174602e-08 -2.9020626762337387778e-10 1.6914864813629907091e-16)
(9.5856888721872248801e-08 -2.8856930838916056696e-10 0)
(9.5856620947684569368e-08 -2.8667857238397125808e-10 0)
(9.585628432509643925e-08 -2.8497641185538923929e-10 0)
(9.5856027328691744181e-08 -2.8300649421007791548e-10 0)
(9.5855684545350304672e-08 -2.8123414131218540823e-10 0)
(9.5855433603949687795e-08 -2.7918512187169400793e-10 1.6914918324852131624e-16)
(9.5855087324027257612e-08 -2.7734238732749684112e-10 4.8633504097233906917e-30)
(9.5854842039168818137e-08 -2.7521429584753150762e-10 -5.0744809489358546433e-16)
(9.5854494506219100901e-08 -2.7329873046473623362e-10 -3.3829891291681580404e-16)
(9.5854251837985209166e-08 -2.7108983969733875214e-10 0)
(9.5853899897658343099e-08 -2.6910391197788053418e-10 0)
(9.5853669860348592655e-08 -2.668118143773194778e-10 -3.3829946701725222243e-16)
(9.5853310442834745107e-08 -2.6475336075825683923e-10 -1.6914982672110534542e-16)
(9.5853089279187813296e-08 -2.6237763382820016433e-10 0)
(9.5852725081283412221e-08 -2.6024729882496215014e-10 -1.6915001445247040051e-16)
(9.5852513232648899939e-08 -2.5778765106368656461e-10 3.3830021795084732436e-16)
(9.5852145686095946308e-08 -2.5558178882978316436e-10 5.0745061181638169901e-16)
(9.5851942633211038737e-08 -2.5303678478701695244e-10 1.6915029934538065707e-16)
(9.5851569127810497339e-08 -2.5075612313775254558e-10 0)
(9.5851381501717448631e-08 -2.4812571057662917429e-10 0)
(9.5851000953980361957e-08 -2.4576728458292475405e-10 -4.5537471841688955976e-16)
(9.5850825412732370704e-08 -2.4305259750256932025e-10 4.5326123749351996839e-16)
(9.5850437091111004682e-08 -2.4061401085711192143e-10 0)
(9.5850275145137195959e-08 -2.3781445344874355251e-10 0)
(9.584988053623629907e-08 -2.352972422225633889e-10 1.6915097976413455184e-16)
(9.5849731829903232822e-08 -2.3240908733419864673e-10 1.6915107878860083806e-16)
(9.5849330572358710666e-08 -2.2981382038728881986e-10 1.691511782744272971e-16)
(9.5849196691716270923e-08 -2.2683800102570113972e-10 1.691512782246025778e-16)
(9.5848786534928879235e-08 -2.2416481481895665831e-10 0)
(9.5848673042266366876e-08 -2.2109926130936960512e-10 1.6915147952497209922e-16)
(9.5848252249385809356e-08 -2.1834566916562929661e-10 1.6915158087951606968e-16)
(9.5848158237922942074e-08 -2.1519098301215121948e-10 4.3266128959742941811e-16)
(9.5847727934191924213e-08 -2.1235598018807053384e-10 -9.2349656011064163327e-17)
(9.5847653889147317146e-08 -2.0911103142196421386e-10 5.0745566336609606595e-16)
(9.5847211000129221167e-08 -2.0619475921778422334e-10 3.3830398209411288855e-16)
(9.5847160178008813824e-08 -2.028595185526297036e-10 1.6915209478739381628e-16)
(9.5846701221024352306e-08 -1.9986130720143223771e-10 1.0145822611691204562e-15)
(9.5846680014986343975e-08 -1.9643806069238270452e-10 -6.7235395626667528416e-16)
(9.584620806665188134e-08 -1.9335368553914475341e-10 4.1880085519592786961e-16)
(9.5846208318066281685e-08 -1.8984327603641307679e-10 -4.168571205475862287e-16)
(9.584572023755421512e-08 -1.8667337638173829236e-10 0)
(9.5845753578200241564e-08 -1.8307373361341010118e-10 0)
(9.5845244062386445518e-08 -1.7981747658841965536e-10 -8.2216182681777257734e-16)
(9.5845314032996985514e-08 -1.7613257942395393519e-10 8.1834601696572936054e-16)
(9.5844784612217963668e-08 -1.7278655667576696658e-10 0)
(9.5844889396842496198e-08 -1.690130921917284148e-10 1.6915315917101377893e-16)
(9.5844332696048895366e-08 -1.6558066205438305978e-10 1.6915326835807886519e-16)
(9.5844480457116247657e-08 -1.6172097398171803375e-10 0)
(9.5843897047582676086e-08 -1.5819507272915123691e-10 0)
(9.5844090740106184801e-08 -1.5425068271774655942e-10 0)
(9.584347402620109039e-08 -1.5063030836765249273e-10 0)
(9.5843715101360865622e-08 -1.4660623113447038404e-10 0)
(9.5843068690976009165e-08 -1.4288626236201090121e-10 0)
(9.5843363711522432512e-08 -1.3878026071999455464e-10 2.1743083601368357371e-15)
(9.5842675975988848629e-08 -1.349597104509035633e-10 -2.3325859511877510289e-15)
(9.5843030204322752945e-08 -1.307752843422133351e-10 1.6915427424335081664e-16)
(9.5842298707748544697e-08 -1.2685013544839593436e-10 9.3948402847025917273e-16)
(9.5842726002073277265e-08 -1.2258950410375919477e-10 -5.9759988950292208664e-16)
(9.5841936133945699022e-08 -1.1855015080403283198e-10 0)
(9.5842445061154367727e-08 -1.1422205260878209565e-10 0)
(9.5841591956544544139e-08 -1.1005869390123643273e-10 0)
(9.5842194449752082864e-08 -1.0566791074919709143e-10 0)
(9.5841263272768529937e-08 -1.0136910694352353555e-10 1.6915508624168850601e-16)
(9.5841975377705630565e-08 -9.6923595702827979711e-11 1.6915520441525233979e-16)
(9.5840953988021918115e-08 -9.247126271483541993e-11 7.4219210113318888183e-16)
(9.584179148451155612e-08 -8.7984940207400763759e-11 -5.6959200361289053775e-16)
(9.5840659384780768438e-08 -8.3357431705957184268e-11 1.6915556225267675475e-16)
(9.5841656717560601317e-08 -7.8843823472025368414e-11 0)
(9.5840379009152616126e-08 -7.4007943598789964262e-11 0)
(9.5841574357434148116e-08 -6.949307783805396276e-11 0)
(9.5840112991529964543e-08 -6.4395265489454418909e-11 0)
(9.5841559842086070272e-08 -5.9919437543241603192e-11 0)
(9.5839857127289570866e-08 -5.448048236465463976e-11 1.6915629308668285486e-16)
(9.5841646752388627539e-08 -5.010658543874289284e-11 3.3831283377428932462e-16)
(9.5839605387878819417e-08 -4.4199632330556185181e-11 1.6915654126706848782e-16)
(9.5841886703020447505e-08 -4.0044224857878577835e-11 1.6915666622437967651e-16)
(9.5839341858939366741e-08 -3.3424730316766317366e-11 1.6915679176784764994e-16)
(9.5842415673263835846e-08 -2.9721051022050865494e-11 0)
(9.5839038979398436164e-08 -2.1890632908138693108e-11 1.6915704461106313636e-16)
(9.5843587325476120898e-08 -1.9181491463592799015e-11 1.6915717191323375889e-16)
(9.5838581856123110502e-08 -8.9452000474350538002e-12 0)
(9.5846419810300564102e-08 -8.7986677419541398168e-12 1.6915742830804350397e-16)
(9.5836932773059724935e-08 7.0949037808187440076e-12 1.6915755741762198465e-16)
(9.5852299456424500676e-08 -1.6587351917919656567e-12 1.6915768709484993228e-16)
(9.5818826594540601576e-08 2.7904029493283517904e-11 1.6915781743002739187e-16)
(9.8982207203570937776e-08 -3.9799864373520495296e-13 0)
(9.8995916396606628852e-08 -1.2750092891903257186e-11 0)
(9.8997589000646605906e-08 -2.3376292744445519264e-11 -1.5364843166691167535e-15)
(9.8997177926199812788e-08 -2.7168812826161387876e-11 1.1997698359506832943e-15)
(9.8999381958911220483e-08 -3.5891033906313485735e-11 1.7153969039748090809e-16)
(9.8997138080866957415e-08 -3.8393348389172648517e-11 1.5556705471386604811e-15)
(9.8999365628944117709e-08 -4.5867607343536542328e-11 -1.3905846957125910225e-15)
(9.8997195401524827134e-08 -4.866663792558948446e-11 0)
(9.8999193143838711928e-08 -5.5462469982213961713e-11 -7.0179310040557394579e-16)
(9.8997331690448827882e-08 -5.869593018717226199e-11 -5.3352615436466860041e-16)
(9.8999088496892966053e-08 -6.5088649875186718317e-11 2.2966016899993432503e-15)
(9.899751536175462792e-08 -6.8658989433015573318e-11 -2.1349721257645778652e-15)
(9.8999066125642448282e-08 -7.4782657777365018699e-11 1.4299517773519112535e-15)
(9.8997736501720305236e-08 -7.857890199717307257e-11 -5.467699108205974939e-16)
(9.8999114720359251276e-08 -8.4506483490054849507e-11 8.9320107009636626556e-16)
(9.8997990402679424337e-08 -8.8450218798082504095e-11 0)
(9.8999227161495316458e-08 -9.4219090710120574743e-11 0)
(9.8998271918851072063e-08 -9.8253203407667296398e-11 7.3180429480439069234e-16)
(9.8999399335781307265e-08 -1.0388227158587408188e-10 -7.3521657516018241626e-16)
(9.8998583251247278125e-08 -1.0796524645473428159e-10 0)
(9.8999623129729986633e-08 -1.1346963346075896073e-10 0)
(9.8998924362717653913e-08 -1.1757053541256756805e-10 0)
(9.8999888838205822145e-08 -1.2295642176365901237e-10 0)
(9.8999293179044000662e-08 -1.2705651000928643382e-10 0)
(9.9000191258311780792e-08 -1.3232815751820136907e-10 0)
(9.8999689705077236356e-08 -1.364080709308698038e-10 0)
(9.9000532423817233786e-08 -1.415700770760347727e-10 0)
(9.9000111251872637295e-08 -1.4561666468177345074e-10 1.7154252621535116964e-16)
(9.9000906050286986897e-08 -1.5066938885246022517e-10 1.7154264276100697153e-16)
(9.9000553252564043104e-08 -1.5467454167681977752e-10 0)
(9.9001308770479320283e-08 -1.5961785455102812519e-10 0)
(9.9001022047192786048e-08 -1.6357361674952810561e-10 0)
(9.9001744488321005485e-08 -1.6841019098088013728e-10 0)
(9.9001513093320672733e-08 -1.7230766721460593663e-10 0)
(9.9002200997749013173e-08 -1.7703480090220192632e-10 7.920374348764499029e-16)
(9.9002023963160455685e-08 -1.8086924725175934995e-10 -7.9573057223467246239e-16)
(9.9002688349694041373e-08 -1.8549086024723172502e-10 0)
(9.9002554955465102325e-08 -1.8925822307750570161e-10 0)
(9.9003198004328503896e-08 -1.93769625158844763e-10 0)
(9.9003103830654393526e-08 -1.974683851277472236e-10 -4.0533938257928324083e-16)
(9.9003727640453966173e-08 -2.0187179282311072602e-10 4.0722941195244831268e-16)
(9.9003672477918334948e-08 -2.054956485785962783e-10 -1.7154410954552842917e-16)
(9.9004277155427756514e-08 -2.0979259124006250568e-10 -1.324190817824408502e-36)
(9.9004256990707330764e-08 -2.1334230502070827547e-10 1.7154432743514859068e-16)
(9.9004844117487065075e-08 -2.1753143742199243835e-10 -8.2975877436207995842e-16)
(9.9004857391355217809e-08 -2.2100403424347743546e-10 8.3362779998254842552e-16)
(9.9005434219684736235e-08 -2.2508668726616829243e-10 1.7154465018004736846e-16)
(9.9005475311387729091e-08 -2.2847782903138633707e-10 1.7154475686345132705e-16)
(9.9006037006533583831e-08 -2.3245422163473937879e-10 -5.9421764287904140384e-16)
(9.9006104722291238917e-08 -2.3576594036012586158e-10 -8.4928804669155769137e-16)
(9.9006656823451527447e-08 -2.3963595956459151895e-10 2.1331202012148065509e-15)
(9.900674676075757213e-08 -2.4286505619788926102e-10 -2.0575447749677977413e-15)
(9.9007290829871359168e-08 -2.4662885514342476609e-10 6.8967929372350041294e-16)
(9.9007403926551778803e-08 -2.4977806066555679147e-10 -2.6107529764753893231e-16)
(9.9007936449567675029e-08 -2.5343591457375719716e-10 7.7772890195094582701e-16)
(9.9008070151907522089e-08 -2.5650196282919549655e-10 1.7154559304914427088e-16)
(9.9008598420041250574e-08 -2.6005616642481685475e-10 -1.715456950020755502e-16)
(9.9008750593132825906e-08 -2.6303922955121929646e-10 -1.7154579647251290047e-16)
(9.9009267197514476952e-08 -2.6649047504272964143e-10 3.6913635263405611532e-25)
(9.9009439647030297912e-08 -2.693908057994954518e-10 -4.4486766421545968128e-16)
(9.9009948194278541795e-08 -2.7273753796676858146e-10 1.0654303754887511693e-15)
(9.901014144609493734e-08 -2.7555424683365120989e-10 -2.774800850613834946e-16)
(9.9010643681298881902e-08 -2.7879764639600543612e-10 0)
(9.9010850093619690424e-08 -2.815323438531271726e-10 1.7154639799479294078e-16)
(9.9011348641840066862e-08 -2.8467333115660478165e-10 1.7154649656627276338e-16)
(9.9011564745922101672e-08 -2.8732637119758887547e-10 0)
(9.9012055918738721044e-08 -2.9036542456173886732e-10 0)
(9.9012286706859309732e-08 -2.9293818242897299242e-10 -1.7154678995277248325e-16)
(9.9012774806526060252e-08 -2.9587592027425156457e-10 -1.7154688671141619719e-16)
(9.9013015745412700006e-08 -2.9836819337984708559e-10 4.6605447089205045305e-16)
(9.9013503153383862234e-08 -3.0120648732608667636e-10 -4.6822760451127745221e-16)
(9.9013753857512021738e-08 -3.0361693273961816197e-10 9.4082278849727367941e-16)
(9.9014237099016512251e-08 -3.0635840539497501304e-10 -9.4520968693752589149e-16)
(9.9014496539563205166e-08 -3.086868950149129485e-10 4.7480904353931447369e-16)
(9.9014975100532823983e-08 -3.1133238764383930039e-10 -4.7702299825851812132e-16)
(9.9015244149176413781e-08 -3.1358059519061108544e-10 0)
(9.9015720443079753152e-08 -3.1613211358411487854e-10 0)
(9.9015994933954868864e-08 -3.1829921514800039074e-10 0)
(9.9016468193086502251e-08 -3.2075546896629355413e-10 0)
(9.9016752135065166768e-08 -3.2284529652482138719e-10 0)
(9.9017219061902881211e-08 -3.252088420681454631e-10 2.4526353054043847036e-16)
(9.9017510538922015707e-08 -3.2722061944410645698e-10 1.3049150431282663211e-22)
(9.9017975531094854893e-08 -3.2949328700483017431e-10 -7.600804422954226666e-17)
(9.901827387725416099e-08 -3.3142828997833055103e-10 9.1768072752958940483e-16)
(9.9018733640558825274e-08 -3.3360982241884126116e-10 -7.4961153226656421228e-16)
(9.9019036577571867764e-08 -3.3546904560327219495e-10 0)
(9.9019494582257872817e-08 -3.3756002812502055471e-10 0)
(9.9019804515267955636e-08 -3.3934502365921140375e-10 0)
(9.9020258079724361067e-08 -3.4134682251697894227e-10 -5.0912856714485128381e-16)
(9.9020568334964411746e-08 -3.4305990674132261224e-10 -2.6099141756995049495e-22)
(9.9021020699344934554e-08 -3.4497594582720363062e-10 5.1388786059903606809e-16)
(9.9021336282269056082e-08 -3.4661425417692575727e-10 1.7154899234924205546e-16)
(9.9021785520734044053e-08 -3.4844927381939271652e-10 1.7154907888719212151e-16)
(9.9022107048070763445e-08 -3.5000986583295105804e-10 0)
(9.9022552880956539522e-08 -3.5176265721115771439e-10 3.5199186454466666124e-16)
(9.9022876912491097095e-08 -3.5325349526004780302e-10 -6.9753163459983957528e-16)
(9.902332006936161772e-08 -3.5492418543194625147e-10 7.9265308381031010129e-16)
(9.9023643624563676924e-08 -3.5634591485485928682e-10 -7.9634909183599830142e-16)
(9.9024086986720612954e-08 -3.5793557565971292655e-10 -1.7154958974703481173e-16)
(9.9024411154766851659e-08 -3.592893773697882008e-10 -1.7154967351286474517e-16)
(9.9024851496934910982e-08 -3.6079911298487860441e-10 0)
(9.9025178797433290719e-08 -3.6208641167491265245e-10 0)
(9.902561824522601083e-08 -3.635164152974107282e-10 5.4339441953464457545e-16)
(9.9025945160575002205e-08 -3.6473673829439667179e-10 -5.4592817632778820446e-16)
(9.9026379551182498206e-08 -3.660915586736202256e-10 -5.4847427083336078209e-16)
(9.9026711572600546794e-08 -3.6724598835772251073e-10 5.5103171411876652895e-16)