/*--------------------------------*- C++ -*----------------------------------*\
| =========                 |                                                 |
| \\      /  F ield         | OpenFOAM: The Open Source CFD Toolbox           |
|  \\    /   O peration     | Version:  2406                                  |
|   \\  /    A nd           | Website:  www.openfoam.com                      |
|    \\/     M anipulation  |                                                 |
\*---------------------------------------------------------------------------*/
FoamFile
{
    version     2.0;
    format      ascii;
    arch        "LSB;label=32;scalar=64";
    class       volVectorField;
    location    "178500.00000589207";
    object      v2;
}
// * * * * * * * * * * * * * * * * * * * * * * * * * * * * * * * * * * * * * //

dimensions      [0 -1 0 0 0 0 0];

internalField   nonuniform List<vector> 
30000
(
(-9.2564945483780599073e-08 -5.8813621513132514914e-10 0)
(-9.2529609992558468283e-08 5.2649518600240222708e-10 0)
(-9.2547262883123498079e-08 -5.9602156653929328599e-10 -1.3649385918865820614e-15)
(-9.2533643633685652123e-08 4.9424493086266064439e-10 1.3713030709925679212e-15)
(-9.2545974637264614485e-08 -6.0768907284203696181e-10 -1.6912902966566102799e-16)
(-9.2535196313104548443e-08 4.6527475031134447688e-10 1.0458602407573060299e-15)
(-9.2546076210172523048e-08 -6.2155809990439207257e-10 -1.5597007314156260294e-15)
(-9.2535246325074072986e-08 4.3657924834531340826e-10 0)
(-9.2546398373638092964e-08 -6.3604722259024930752e-10 0)
(-9.2534700581850170039e-08 4.0778395104003484288e-10 -2.9893495960870941337e-15)
(-9.2546759468931032571e-08 -6.5054363522784056146e-10 3.3725854759823979378e-15)
(-9.2533878177947243282e-08 3.7887330017966163662e-10 -7.1164521252555861139e-16)
(-9.254710858756286272e-08 -6.6479385337921873563e-10 7.1496244696078511195e-16)
(-9.2532909526566091302e-08 3.4988177372931216358e-10 -2.3240154459508431154e-15)
(-9.2547412029652426939e-08 -6.7868545797449637981e-10 1.2741621550641789496e-15)
(-9.2531846020926671801e-08 3.2085582564444264192e-10 7.250088276603389721e-16)
(-9.2547659611698537437e-08 -6.9215961735613407858e-10 -7.2838942189563866667e-16)
(-9.2530716579006641295e-08 2.9184292924028529352e-10 7.3178473177735555337e-16)
(-9.2547845985113038438e-08 -7.0518608044546739998e-10 -7.3519692091403494524e-16)
(-9.252953112092448962e-08 2.6289035075251243201e-10 0)
(-9.2547973435808573352e-08 -7.1774432857413997432e-10 0)
(-9.2528307745649464513e-08 2.3403240914034608646e-10 0)
(-9.2548028343089528903e-08 -7.2982767459196424747e-10 0)
(-9.2527046732372400121e-08 2.053123649704787526e-10 0)
(-9.2548019316118034921e-08 -7.4142775827766938761e-10 0)
(-9.2525756345954387081e-08 1.7675720365996510808e-10 0)
(-9.2547941917540605391e-08 -7.5254348665894347804e-10 0)
(-9.2524440773394837494e-08 1.4840214914706882817e-10 2.141868820983438574e-16)
(-9.254779941856131904e-08 -7.6317739053988548349e-10 -5.5422655972476461888e-16)
(-9.2523102524782478696e-08 1.2027292017137436895e-10 0)
(-9.2547596092720573612e-08 -7.7333773900459173972e-10 0)
(-9.2521743491786700897e-08 9.2392052768310412959e-11 0)
(-9.2547330657466703122e-08 -7.8302768749182665001e-10 0)
(-9.2520371136179359443e-08 6.478381660464182192e-11 0)
(-9.2547005280174391348e-08 -7.9225956552106033901e-10 7.9199782930228580686e-16)
(-9.2518981230170926577e-08 3.7462072623955079472e-11 -7.9569078198636721668e-16)
(-9.2546618699676060212e-08 -8.0103948162356323991e-10 0)
(-9.2517579556119762574e-08 1.045726842882541572e-11 0)
(-9.2546175442599993446e-08 -8.0937189629755317878e-10 0)
(-9.2516165775908539333e-08 -1.6209681164423590255e-11 -4.0531647842342390144e-16)
(-9.2545676977635544184e-08 -8.1726394277983040772e-10 -4.0720587843281048507e-16)
(-9.2514735969112904009e-08 -4.2520849182472842185e-11 9.8733442010240657498e-16)
(-9.254512188980640516e-08 -8.2471601491510154552e-10 -1.307265139615685188e-36)
(-9.2513301810637922738e-08 -6.8460081511075328519e-11 -1.6912445830124186614e-16)
(-9.2544518993135580197e-08 -8.3174360119383056359e-10 0)
(-9.2511862375008766669e-08 -9.4018564797033033142e-11 0)
(-9.254387102443910409e-08 -8.3835874855529194324e-10 0)
(-9.2510418308667891841e-08 -1.1918393737143458464e-10 0)
(-9.2543169810076649471e-08 -8.4457118650829241546e-10 -4.2264410805713932583e-16)
(-9.250896401390305305e-08 -1.439441140565212829e-10 -8.492288693669036274e-16)
(-9.2542426339003700999e-08 -8.5038796276584661417e-10 2.7286897665034811388e-15)
(-9.2507512991063554774e-08 -1.6829010233790083942e-10 -1.3760858912564227009e-15)
(-9.254163714532089246e-08 -8.5582456170967788797e-10 5.997050118394293223e-16)
(-9.2506057616679507903e-08 -1.922120150276379471e-10 -4.3258870249113185395e-16)
(-9.2540808377747167066e-08 -8.6088739837057404167e-10 2.6548248019545870324e-16)
(-9.2504599213742882704e-08 -2.1570466116578279968e-10 -1.6912321020849444709e-16)
(-9.2539937413819511319e-08 -8.6558703161978963584e-10 0)
(-9.2503141914491802435e-08 -2.387560569313758587e-10 -1.691230088841299463e-16)
(-9.2539027824215981692e-08 -8.699305168705409826e-10 -1.6912290806321884845e-16)
(-9.2501686478322657762e-08 -2.6136222332573748256e-10 -4.4483160736806082329e-16)
(-9.2538083499553113697e-08 -8.7393082409098429458e-10 7.2468859387091768895e-16)
(-9.2500232243917413262e-08 -2.8351978071555400676e-10 -6.181119781810963314e-16)
(-9.2537107391153562628e-08 -8.7759391154516832965e-10 0)
(-9.2498780871889336869e-08 -3.0522150126076058524e-10 0)
(-9.2536097155633579015e-08 -8.8093145406657935512e-10 0)
(-9.2497332352741429004e-08 -3.2646279263746899982e-10 0)
(-9.2535051878312630721e-08 -8.8395339608123906624e-10 0)
(-9.2495882585730845428e-08 -3.4724246917442476282e-10 1.6912202989085730156e-16)
(-9.253397906487055085e-08 -8.8666520636349737103e-10 1.6912193374011569299e-16)
(-9.2494439851868855461e-08 -3.6755634104464706982e-10 4.6601136442551431775e-16)
(-9.2532877410088687935e-08 -8.8907904806473185965e-10 -4.6818429704653500586e-16)
(-9.249300421223489905e-08 -3.8740047589327660618e-10 1.4111005142538323448e-15)
(-9.2531751879233362381e-08 -8.9120134230505536459e-10 -1.4176802386405823794e-15)
(-9.2491573141160679217e-08 -4.0677582260112041818e-10 4.74763024129920535e-16)
(-9.2530602086046300583e-08 -8.9303984992743548069e-10 -4.7697676426836474385e-16)
(-9.249014954415395087e-08 -4.2568353537849505137e-10 0)
(-9.252942627897942437e-08 -8.9460564014574032248e-10 0)
(-9.2488734001913688759e-08 -4.4412064364985201406e-10 0)
(-9.2528229655501913447e-08 -8.9590877039827294965e-10 0)
(-9.2487321467938665917e-08 -4.6208939635686111372e-10 0)
(-9.2527009899857718455e-08 -8.9695214297281506287e-10 2.4523790586416813081e-16)
(-9.2485918867479639803e-08 -4.7958959153556746905e-10 -2.4638140897641236354e-16)
(-9.2525770253073503255e-08 -8.9774706654012766717e-10 -1.6912064365182466523e-16)
(-9.2484526023904843161e-08 -4.9662106846853992333e-10 5.7693157194265330497e-16)
(-9.2524517131181512466e-08 -8.9830063145797004378e-10 -7.4953084277964164522e-16)
(-9.248314245216955407e-08 -5.1318845804007766548e-10 0)
(-9.2523246575093131762e-08 -8.9862334674764223397e-10 0)
(-9.2481763684483560452e-08 -5.2929509144473366961e-10 0)
(-9.2521958591669844176e-08 -8.9871711770360007064e-10 0)
(-9.2480394795329081536e-08 -5.449397170726357044e-10 0)
(-9.2520656439636497903e-08 -8.9859307627473231187e-10 0)
(-9.247903651398089142e-08 -5.6012780442953577107e-10 -1.6911985807037835959e-16)
(-9.2519343977109397783e-08 -8.982586050300913293e-10 -1.6911977227709999651e-16)
(-9.2477691262308508063e-08 -5.7486263991273895116e-10 0)
(-9.2518017289154552657e-08 -8.9771947517083959298e-10 5.2347888075042087966e-16)
(-9.2476358235687184259e-08 -5.8914672996588737061e-10 -5.2591977473548765691e-16)
(-9.2516682436488152982e-08 -8.9698415723947098752e-10 2.6418576334402415685e-16)
(-9.2475029746292670408e-08 -6.029851166380019264e-10 -2.6541761712915704737e-16)
(-9.2515337969214097971e-08 -8.9605767818132566393e-10 1.6911926858460444802e-16)
(-9.2473714435897864809e-08 -6.1638036768747079617e-10 1.6911918638139427324e-16)
(-9.2513982820522858806e-08 -8.9494683377507626971e-10 0)
(-9.2472413542723812718e-08 -6.2933846222664653037e-10 0)
(-9.2512625536080553605e-08 -8.9365957720173565223e-10 5.4332557977935688912e-16)
(-9.2471119908780262295e-08 -6.4186507900819584631e-10 -5.4585901558429254762e-16)
(-9.2511255933103021199e-08 -8.9219947236147119183e-10 0)
(-9.2469841154344529593e-08 -6.5396229988872176311e-10 0)
(-9.2509882025484595559e-08 -8.9057365597868629341e-10 0)
(-9.2468573465070075573e-08 -6.6563632720294746518e-10 0)
(-9.2508502997832556961e-08 -8.8878984223640893038e-10 5.5870290973807072256e-16)
(-9.2467319242900643093e-08 -6.7689189680242085813e-10 -5.6130804744650773666e-16)
(-9.2507124193104899353e-08 -8.8685335198341111464e-10 1.1278496180298392607e-15)
(-9.2466073576924598307e-08 -6.8773612087707545322e-10 -1.1331085911230362329e-15)
(-9.250574017180699262e-08 -8.8476832327664510791e-10 0)
(-9.2464846576578210759e-08 -6.9817585396417683431e-10 0)
(-9.2504357805746354818e-08 -8.8254570665636074125e-10 0)
(-9.2463627227331543249e-08 -7.0821846911709995236e-10 5.7719410557151026847e-16)
(-9.2502970450583982121e-08 -8.8018617620483618518e-10 -2.8994286289045554148e-16)
(-9.2462421876571993331e-08 -7.178667293029029845e-10 -4.6041231877742297211e-16)
(-9.2501582328760058349e-08 -8.7769499151492338317e-10 -1.6911768763497577437e-16)
(-9.2461229377145688122e-08 -7.2712513464831443358e-10 -2.9401701022954017158e-16)
(-9.2500195130214792283e-08 -8.7507843014554974665e-10 2.9538796210204060346e-16)
(-9.2460048798845902152e-08 -7.3600098685535586271e-10 1.6911746311779164847e-16)
(-9.2498809055848556849e-08 -8.7233987786418273676e-10 1.6911738871850428627e-16)
(-9.2458880634755104441e-08 -7.4450013164431948369e-10 0)
(-9.2497426034884292081e-08 -8.6948391106948758642e-10 0)
(-9.245772657430340465e-08 -7.5262981876181323466e-10 0)
(-9.2496044798171650532e-08 -8.6651708115763279644e-10 1.6911709531362213516e-16)
(-9.2456583590304104781e-08 -7.6039633632451136554e-10 1.6911702295660597295e-16)
(-9.2494665700188348741e-08 -8.6344350409888026527e-10 1.6911695064617917159e-16)
(-9.2455457253282167358e-08 -7.6780566022602933648e-10 1.6911687894608594212e-16)
(-9.2493289536906639419e-08 -8.6026768907480563556e-10 1.691168073186658333e-16)
(-9.2454343946826321262e-08 -7.748629972629724442e-10 -1.94437354062519499e-30)
(-9.2491918824306139057e-08 -8.569940955852821862e-10 -1.6911666531865724056e-16)
(-9.2453241150130225396e-08 -7.8157690427718483722e-10 1.6911659491483748224e-16)
(-9.2490552573973487122e-08 -8.5362542361152157706e-10 1.6911652463386498657e-16)
(-9.2452152659597971338e-08 -7.8795227754463550914e-10 0)
(-9.2489193068491441984e-08 -8.5016853120051662765e-10 0)
(-9.2451076583297496022e-08 -7.9399678936559312465e-10 0)
(-9.2487838430677484104e-08 -8.4662424120598289277e-10 0)
(-9.2450014425398178986e-08 -7.9971629698764495275e-10 1.6911617865876628644e-16)
(-9.2486488452943161048e-08 -8.4299792441975145824e-10 1.6911611034947113491e-16)
(-9.244896569716518604e-08 -8.0511814078058128279e-10 0)
(-9.2485147418632588713e-08 -8.392934780036480818e-10 -1.6911597480480621477e-16)
(-9.2447929295538214917e-08 -8.1020876610924756397e-10 1.644794301587239288e-30)
(-9.2483810895278602397e-08 -8.3551480692512674656e-10 1.6911584051554543534e-16)
(-9.2446907306467453036e-08 -8.149932771895421233e-10 0)
(-9.2482483131500328821e-08 -8.3166543024249398794e-10 0)
(-9.2445895495972395595e-08 -8.1947995969406484624e-10 0)
(-9.2481164250257808698e-08 -8.2774825778314392709e-10 0)
(-9.244490138148929596e-08 -8.2367490087516114208e-10 0)
(-9.2479934679793654131e-08 -8.2376722419679840657e-10 0)
(-9.2443662462355695651e-08 -8.2763937520695051336e-10 1.6911537945672043674e-16)
(-9.2478944217039777557e-08 -8.1955639013911736325e-10 1.6911531371189817164e-16)
(-9.2442336292162789135e-08 -8.3153771930743319069e-10 0)
(-9.2477943642271527845e-08 -8.1505327990162074637e-10 -1.6911518128483489429e-16)
(-9.2440999654796910805e-08 -8.3536789221708649919e-10 -1.0327853796044730835e-31)
(-9.2476926377350224382e-08 -8.1025094829039351367e-10 1.691150476202782919e-16)
(-9.2439656183303497144e-08 -8.3912662468781194108e-10 0)
(-9.2475899635530598364e-08 -8.0514363335563404665e-10 0)
(-9.24383053816690672e-08 -8.4281064906170370767e-10 0)
(-9.2474859611056282152e-08 -7.9972378597917309799e-10 0)
(-9.2436948795523833915e-08 -8.4641728312658383534e-10 0)
(-9.247380745840921447e-08 -7.9398518550102745445e-10 0)
(-9.243558559821734795e-08 -8.4994243297630248053e-10 0)
(-9.2472739836269001243e-08 -7.8792229573480882837e-10 0)
(-9.2434216568257644066e-08 -8.5338085776309601068e-10 0)
(-9.2471660103114568246e-08 -7.815289855043946949e-10 0)
(-9.2432842367922882768e-08 -8.5672846793985892099e-10 0)
(-9.2470568242770802264e-08 -7.7479747642190555821e-10 0)
(-9.2431462147226632028e-08 -8.5998262929859374299e-10 -1.6911414770496215443e-16)
(-9.2469462079863071265e-08 -7.6772067638673243876e-10 -1.6911407633357604755e-16)
(-9.2430080551558010751e-08 -8.6313694105993465366e-10 -3.3822800873733660245e-16)
(-9.2468343062684638235e-08 -7.6029312714545714631e-10 -5.0734179703084977462e-16)
(-9.2428692665657392919e-08 -8.6618878141250563707e-10 -1.6911385969273601103e-16)
(-9.246721301771126883e-08 -7.5250780762956452933e-10 0)
(-9.2427302560595635113e-08 -8.6913334848566495238e-10 -1.6911371366464559288e-16)
(-9.2466069833292750455e-08 -7.4435832521832324427e-10 -1.6911364031452721088e-16)
(-9.2425909104112681513e-08 -8.7196614842851694924e-10 0)
(-9.2464911960655941183e-08 -7.3583908336203605101e-10 1.6911349225013132868e-16)
(-9.2424514433091697392e-08 -8.74681823695968154e-10 3.1680373522474869899e-16)
(-9.2463742745342847299e-08 -7.2694282762080187635e-10 -4.4101444584011436154e-16)
(-9.2423119832773043069e-08 -8.7727618727733675032e-10 2.9264503247976176313e-16)
(-9.2462558933683567653e-08 -7.1766381869421344901e-10 -1.4564327533716890122e-16)
(-9.2421723634333292602e-08 -8.7974379633972493684e-10 1.4496731711728135279e-16)
(-9.2461363317147760058e-08 -7.0799504057371568761e-10 0)
(-9.242032826013689589e-08 -8.8207892838277774529e-10 0)
(-9.2460152878351121181e-08 -6.9793102796026021369e-10 -1.6911288602659256895e-16)
(-9.2418934863893350546e-08 -8.8427601497236544892e-10 -3.3822561676999938501e-16)
(-9.2458932859336933727e-08 -6.8746606007609403026e-10 -1.6911273091365571979e-16)
(-9.2417543539796518719e-08 -8.8633053631386874942e-10 1.410692195057075388e-30)
(-9.2457697895917619944e-08 -6.7659512383128480229e-10 -2.8064425669983105302e-16)
(-9.2416155968867219906e-08 -8.8823526910280449111e-10 2.7934173317620437242e-16)
(-9.2456451452497493188e-08 -6.6531131131075949235e-10 0)
(-9.2414769703267983862e-08 -8.8998609492778084672e-10 0)
(-9.2455196044968766738e-08 -6.53609239575944314e-10 -5.5093960746707778399e-16)
(-9.241338726054600713e-08 -8.9157883336640381775e-10 3.7927041548976993548e-16)
(-9.2453926610577491016e-08 -6.414822162691303765e-10 -3.3822419166213075209e-16)
(-9.2412010555432978324e-08 -8.9300522922631786223e-10 -7.124153429629486411e-16)
(-9.2452646749401203771e-08 -6.2892576146684088089e-10 5.4078175417478667143e-16)
(-9.2410646285338446179e-08 -8.9425954045988873175e-10 2.691356810929407615e-16)
(-9.2451349679970912463e-08 -6.1593766545388029388e-10 -2.6788657106378576101e-16)
(-9.2409282813720287307e-08 -8.9533202507781698832e-10 -2.666429980349228156e-16)
(-9.2450046087576687343e-08 -6.0250981734104968124e-10 4.3451706079356236354e-16)
(-9.240792846653884492e-08 -8.962205111471714311e-10 1.6911152000030437528e-16)
(-9.2448728768351066323e-08 -5.8863493315400886631e-10 0)
(-9.240658685006093975e-08 -8.9691595923540690729e-10 0)
(-9.244740257822734221e-08 -5.7431516181721022212e-10 0)
(-9.2405253306662935471e-08 -8.974140963443683095e-10 0)
(-9.244606266303075524e-08 -5.5954434929018324108e-10 0)
(-9.2403933317797530409e-08 -8.9770538350609062971e-10 0)
(-9.2444714123301963867e-08 -5.4431602777106892038e-10 2.557085243702141162e-16)
(-9.2402627965543875139e-08 -8.9778344378496113737e-10 -5.0904333422957839841e-16)
(-9.2443353725892690023e-08 -5.2863009734694866711e-10 8.4229566060062231698e-17)
(-9.2401339098380488148e-08 -8.9763907879284627043e-10 0)
(-9.2441982590702290669e-08 -5.1248264368672263477e-10 1.6911057748299738044e-16)
(-9.2400062057246066737e-08 -8.9726789727898316795e-10 0)
(-9.2440604371658740813e-08 -4.9586941831029517342e-10 0)
(-9.2398805788397289788e-08 -8.9666294895286802266e-10 0)
(-9.243921202512228205e-08 -4.7879063581883259592e-10 0)
(-9.2397565507905560388e-08 -8.9581184076766471774e-10 0)
(-9.2437812557605590816e-08 -4.6124178083206229166e-10 1.6911004245706867884e-16)
(-9.2396345032101605489e-08 -8.9470857206719884254e-10 4.862219576695864817e-30)
(-9.2436405625374967939e-08 -4.4322251243742339411e-10 -5.0732958231462496296e-16)
(-9.239514413399695355e-08 -8.9334476528307947337e-10 -3.3821953731288518692e-16)
(-9.2434992832981098438e-08 -4.2473055689988888461e-10 0)
(-9.2393971416211979836e-08 -8.9171593282673760741e-10 0)
(-9.2433567719360501604e-08 -4.0576789414827126924e-10 -3.3821898458202134608e-16)
(-9.2392822152493897536e-08 -8.8981062063149989486e-10 -1.69109398410487219e-16)
(-9.2432137671751784719e-08 -3.8633418761197889273e-10 0)
(-9.2391698176888352816e-08 -8.8762031302819222819e-10 -1.6910921068841169133e-16)
(-9.2430700549778936274e-08 -3.6642957499251945849e-10 3.382182337824789555e-16)
(-9.2390599912586836583e-08 -8.8513435739173037747e-10 5.0732706363599336671e-16)
(-9.2429256724248972485e-08 -3.4605261032314224626e-10 1.691089265561136254e-16)
(-9.2389534077484852624e-08 -8.8234531287621013125e-10 0)
(-9.2427803023134864248e-08 -3.2520730105323121149e-10 0)
(-9.2388496143808518381e-08 -8.7924204547362786717e-10 -4.5526150019795453912e-16)
(-9.242634563840552028e-08 -3.0389600964076793483e-10 4.5314854474193356501e-16)
(-9.2387492663156748769e-08 -8.7581513774105302626e-10 0)
(-9.2424884372875204178e-08 -2.8211973284925674909e-10 0)
(-9.238652264748321322e-08 -8.720577009616459312e-10 1.6910824543291759189e-16)
(-9.242341908429060874e-08 -2.5988055301246410073e-10 1.6910814726092975068e-16)
(-9.2385589372392048688e-08 -8.6795775972263333178e-10 1.6910804693590364365e-16)
(-9.2421950833804789998e-08 -2.3718669900900641815e-10 1.6910794786410654128e-16)
(-9.2384696600802824092e-08 -8.6350925003328752407e-10 0)
(-9.2420476882283767792e-08 -2.140420186690193174e-10 1.6910774660376964004e-16)
(-9.2383841728194986629e-08 -8.5869757097641689182e-10 1.6910764435955452831e-16)
(-9.2419000499419799385e-08 -1.9045168650666857488e-10 4.3254810999713287813e-16)
(-9.2383027836565796635e-08 -8.5351282760152661209e-10 -9.2325691226411234885e-17)
(-9.2417522479224017988e-08 -1.6642151833533045404e-10 5.0732201526802127107e-16)
(-9.238226031649887989e-08 -8.4794521218889548676e-10 3.3821446844753875933e-16)
(-9.2416043952101358153e-08 -1.4196003217646012578e-10 1.6910713146655055174e-16)
(-9.2381541920856317761e-08 -8.4198458304702303294e-10 1.0143107633820827376e-15)
(-9.2414562633806256426e-08 -1.1707734684449666029e-10 -6.7217406277651043273e-16)
(-9.2380864897539558008e-08 -8.3561749774144432595e-10 4.1868769938444796575e-16)
(-9.2413085713172292994e-08 -9.1780443740464201704e-11 -4.1674448991380996821e-16)
(-9.2380243975187859634e-08 -8.2883611403350166456e-10 0)
(-9.2411607439615986881e-08 -6.6077757154660916092e-11 0)
(-9.2379676623409168497e-08 -8.2162746297199536072e-10 -8.2193554173273900808e-16)
(-9.2410130908687350572e-08 -3.9985908412756319666e-11 8.1812078211293566109e-16)
(-9.2379158697784802567e-08 -8.1398130024674923433e-10 0)
(-9.2408655761378205931e-08 -1.3508886435476174364e-11 1.6910606730790045654e-16)
(-9.2378702580885229876e-08 -8.0588515359896534159e-10 1.6910595702737189955e-16)
(-9.240718511755112418e-08 1.3334672746201526992e-11 0)
(-9.2378304040580143509e-08 -7.9732362407552496731e-10 0)
(-9.2405718004210160562e-08 4.0533949642605139382e-11 0)
(-9.2377967270586641524e-08 -7.8828610612425983447e-10 0)
(-9.2404258457596534205e-08 6.8071241141270302261e-11 0)
(-9.2377692478615704965e-08 -7.7875901061552271472e-10 0)
(-9.2402800841666953246e-08 9.5936823854199796857e-11 2.1736785845050979644e-15)
(-9.2377486628764001633e-08 -7.6872842911515706907e-10 -2.3319104578214162261e-15)
(-9.2401352780167426302e-08 1.2411016271255512049e-10 1.6910495247934572066e-16)
(-9.2377349820027077872e-08 -7.5818117275265617974e-10 9.392082811854374984e-16)
(-9.2399905103065916556e-08 1.525757798989824272e-10 -5.9742452411814691558e-16)
(-9.2377287368819800268e-08 -7.4709726166605045569e-10 0)
(-9.2398465665914046711e-08 1.8131317006793926445e-10 0)
(-9.2377298110836606676e-08 -7.3546315211136996553e-10 0)
(-9.2397030667196238693e-08 2.1030808149125981851e-10 0)
(-9.2377386892741986291e-08 -7.2325958785557042638e-10 1.6910413934734058501e-16)
(-9.2395600291191405555e-08 2.3954047541828882495e-10 1.6910402251438696625e-16)
(-9.2377556891690985091e-08 -7.1046221359408214939e-10 7.419659544913834532e-16)
(-9.2394172062709278837e-08 2.6899183601633383787e-10 -5.694185644140752916e-16)
(-9.2377815368951258686e-08 -6.9705128897687554602e-10 1.6910366339767177633e-16)
(-9.2392738427207076989e-08 2.9864488827479146079e-10 0)
(-9.2378168230105866156e-08 -6.8299416406428830735e-10 0)
(-9.2391296601595011199e-08 3.2848171231604145784e-10 0)
(-9.2378618677972503325e-08 -6.6824955331588025547e-10 0)
(-9.2389834216891721827e-08 3.5848464427701193504e-10 0)
(-9.2379180947585261436e-08 -6.527666537620881272e-10 1.6910293266509043492e-16)
(-9.2388321978203972753e-08 3.8863876222168606924e-10 3.3820562062812667672e-16)
(-9.2379867979996689924e-08 -6.3646765368850769518e-10 1.6910268452155286462e-16)
(-9.2386713366874582906e-08 4.1892495854652222955e-10 1.6910256103275151189e-16)
(-9.2380713285896611688e-08 -6.1921329440288971849e-10 1.6910243405962916965e-16)
(-9.238488062796115455e-08 4.4931324990195105017e-10 0)
(-9.2381775281633390031e-08 -6.007282186154306427e-10 1.6910218125800992433e-16)
(-9.2382500160866962317e-08 4.797075129609316353e-10 1.691020554570560258e-16)
(-9.238323277853088675e-08 -5.8037331464846748682e-10 0)
(-9.2378663085705670206e-08 5.0966341926895236426e-10 1.6910179911814789804e-16)
(-9.2386247218380750885e-08 -5.5654324388649609552e-10 1.6910166855284425566e-16)
(-9.2372377457177304175e-08 5.3608147085180526945e-10 1.6910154037784398193e-16)
(-9.2405677107063806486e-08 -5.277282043107453058e-10 1.6910140860924867071e-16)
(-8.9253532263898245956e-08 -4.7562335434954095413e-10 0)
(-8.9242844612178799093e-08 4.5471628016715296739e-10 0)
(-8.9239484464222989113e-08 -5.0254912845884944155e-10 -1.5364773642435659643e-15)
(-8.924261574926545988e-08 4.272906651463051358e-10 1.1997644358057356111e-15)
(-8.9237756811092382814e-08 -5.1956633656572365864e-10 1.7153850726966737751e-16)
(-8.9243399033726871958e-08 4.0195458135686424395e-10 1.555656434726410387e-15)
(-8.9237678328794716077e-08 -5.3361341077778962939e-10 -1.3905719652025929642e-15)
(-8.9244105807315094575e-08 3.7718840221647659147e-10 0)
(-8.9237770083107505392e-08 -5.4673676392806975364e-10 -7.017835304042703012e-16)
(-8.9244782373859556938e-08 3.5247884828085249239e-10 -5.3351691922178950796e-16)
(-8.9237846990595534424e-08 -5.5939052640920580952e-10 2.2965658005796886475e-15)
(-8.9245466583162370633e-08 3.2771428910843075016e-10 -2.1349346190773413034e-15)
(-8.923790630004977278e-08 -5.7166169269623703074e-10 1.4299259572705831596e-15)
(-8.9246169085172162039e-08 3.0289815291361258722e-10 -5.4675832209119417479e-16)
(-8.9237967469865541602e-08 -5.8354960498935812941e-10 8.9318221348729082603e-16)
(-8.924689239403554188e-08 2.7805666052726795904e-10 0)
(-8.9238037753593761656e-08 -5.9504415034833684444e-10 0)
(-8.9247636479096137864e-08 2.5322437961040765153e-10 7.3178474548571976814e-16)
(-8.9238121254111495803e-08 -6.0613314850040636213e-10 -7.351969346863262784e-16)
(-8.9248401083114239368e-08 2.2844131391855081847e-10 0)
(-8.9238228350378356306e-08 -6.1681048197132859606e-10 0)
(-8.9249182887747206248e-08 2.0373978758563229201e-10 0)
(-8.9238361568062388679e-08 -6.2706957941182348255e-10 0)
(-8.9249979631451612398e-08 1.7914996865088914432e-10 0)
(-8.9238529260365759802e-08 -6.369127623227612277e-10 0)
(-8.9250791076415255169e-08 1.5470237140569305612e-10 0)
(-8.9238725710777458104e-08 -6.4634170716497600085e-10 0)
(-8.9251617152431173454e-08 1.3042218395350119966e-10 1.7153567238695604779e-16)
(-8.9238957242194471949e-08 -6.5535510483118712992e-10 1.71535554553592473e-16)
(-8.925246221959704279e-08 1.0633253774213734042e-10 0)
(-8.9239222612026932196e-08 -6.6395897839758174283e-10 0)
(-8.9253318797402455285e-08 8.2454468113312464905e-11 0)
(-8.923952032912329691e-08 -6.7216608677241861258e-10 0)
(-8.925419023859585442e-08 5.8804361498842522816e-11 0)
(-8.923985917200945727e-08 -6.799793711009803409e-10 7.9199785644626340905e-16)
(-8.9255074182456685059e-08 3.5403638618501731713e-11 -7.9569080925692208707e-16)
(-8.9240220795863608519e-08 -6.8740656953473037495e-10 0)
(-8.9255963134741766187e-08 1.2269381032884665158e-11 0)
(-8.9240610788121050991e-08 -6.9444372448186634911e-10 0)
(-8.9256860757199264793e-08 -1.0573092865165620394e-11 -4.0531649389163902631e-16)
(-8.9241030510808408061e-08 -7.0110206037735293355e-10 4.0720641653870289516e-16)
(-8.9257763030070243518e-08 -3.3111513835567897872e-11 -1.7153408871544012904e-16)
(-8.9241482825113573872e-08 -7.0738767160016128683e-10 1.3239620887588971557e-36)
(-8.9258677116523144543e-08 -5.5336547861397633298e-11 1.7153387077980201314e-16)
(-8.9241967236356442916e-08 -7.1331198714098624693e-10 -8.2970665216775627871e-16)
(-8.9259599935274729836e-08 -7.7235926548044039837e-11 8.3357543475119826191e-16)
(-8.9242476304550728137e-08 -7.1888405514135479927e-10 1.7153354563028780982e-16)
(-8.9260528485694160729e-08 -9.879762174017319392e-11 1.715334408084887462e-16)
(-8.924301783902425993e-08 -7.2411060673988177548e-10 -5.9417745981048098661e-16)
(-8.9261465383930309787e-08 -1.2001631627513749611e-10 -8.4922890827324175095e-16)
(-8.9243584307036196594e-08 -7.2900321982078101985e-10 2.1329719322437729233e-15)
(-8.9262408206793028805e-08 -1.4088026942924338356e-10 -2.0573989851890588471e-15)
(-8.9244177446148143577e-08 -7.335659461906048041e-10 6.896301206643231426e-16)
(-8.9263353599897208123e-08 -1.613837510795257029e-10 -2.610559125772269605e-16)
(-8.9244796896272339549e-08 -7.3781162903465683808e-10 7.7767122439329383183e-16)
(-8.9264305471411295582e-08 -1.8151803229359277719e-10 1.7153260490623904765e-16)
(-8.9245435792756643452e-08 -7.4174799655162881507e-10 -1.7153250064726443256e-16)
(-8.9265255749419147387e-08 -2.0127789147161013022e-10 -1.7153240015616069639e-16)
(-8.9246100874857949141e-08 -7.4538231479870574095e-10 1.0329197331708054571e-24)
(-8.9266211731498312846e-08 -2.2065852846124939698e-10 -4.4483163050471633761e-16)
(-8.924678835544062454e-08 -7.48721917199784709e-10 1.0653434473805897718e-15)
(-8.9267165266560981509e-08 -2.3965237547539085874e-10 -2.7745739208346339911e-16)
(-8.9247490011823980136e-08 -7.5177387985220329359e-10 0)
(-8.9268122510055548358e-08 -2.5825698138265465995e-10 1.7153179905651564707e-16)
(-8.9248211298649077446e-08 -7.5454873929142262871e-10 1.7153169897968416278e-16)
(-8.9269081633496834125e-08 -2.7646822626067984347e-10 0)
(-8.9248957225679273111e-08 -7.5705189913265932657e-10 0)
(-8.927004087039791848e-08 -2.9428502934046776512e-10 -1.7153140777334308106e-16)
(-8.9249716315789378073e-08 -7.5929434229157864072e-10 -1.7153131025280143182e-16)
(-8.9271001206652384519e-08 -3.1170320302854749028e-10 4.6601139125271792092e-16)
(-8.9250489603742819255e-08 -7.6128210563393648779e-10 -4.6818432399883163542e-16)
(-8.9271955601102095086e-08 -3.2872068199863788831e-10 9.4073373127069864799e-16)
(-8.9251278588511026167e-08 -7.6302259474104149091e-10 -9.4512021445208031228e-16)
(-8.9272908247318021818e-08 -3.4533636855414694622e-10 4.7476305239898329453e-16)
(-8.9252083990215523122e-08 -7.6452225752674051443e-10 -4.769767926692340319e-16)
(-8.9273861290958181043e-08 -3.6155042442316346833e-10 0)
(-8.9252901436163691405e-08 -7.6578925632943763887e-10 0)
(-8.9274813256131388163e-08 -3.7736230583555732413e-10 0)
(-8.9253732912687219066e-08 -7.6682821054059284246e-10 0)
(-8.9275759010211231098e-08 -3.9277329773706860476e-10 0)
(-8.9254576936730941833e-08 -7.6765094644326039274e-10 2.4523792127724887954e-16)
(-8.9276704179789913966e-08 -4.0778401610629390216e-10 -1.3049972654019843731e-22)
(-8.9255430442421149456e-08 -7.6826187598607070713e-10 -7.6000126714881713811e-17)
(-8.9277643037047423619e-08 -4.2239649900401108765e-10 9.1758208695364758986e-16)
(-8.9256293573754276765e-08 -7.6866700665561056817e-10 -7.4953089066894301428e-16)
(-8.927858172493147075e-08 -4.36609771572903543e-10 0)
(-8.9257168606821686321e-08 -7.6887228883631385546e-10 0)
(-8.9279511668397168565e-08 -4.5042603044577539802e-10 0)
(-8.925804847151452833e-08 -7.6888655633160401171e-10 -5.0907116208788199868e-16)
(-8.9280442272294997985e-08 -4.6384950425492086129e-10 2.610098834847832666e-22)
(-8.9258939882496505309e-08 -7.6871740280116184874e-10 5.138293945184075366e-16)
(-8.9281367171074673672e-08 -4.7688085803339289654e-10 1.7152920501227319042e-16)
(-8.9259835615343989027e-08 -7.6836994495359027473e-10 1.7152911799675225438e-16)
(-8.9282282287593873054e-08 -4.8952178535578100187e-10 0)
(-8.9260738429428072299e-08 -7.6784700072640733438e-10 3.5194997124855632041e-16)
(-8.9283192316498255871e-08 -5.0177921725959440677e-10 -6.9744867097350165515e-16)
(-8.9261646141859352661e-08 -7.6715615917559853026e-10 7.9255734433932700907e-16)
(-8.9284100117255617344e-08 -5.1365518478918125223e-10 -7.9625290594796304742e-16)
(-8.9262556322643095668e-08 -7.6630503343258530384e-10 -1.7152860712846167738e-16)
(-8.9284999851313168313e-08 -5.2515434588801613873e-10 -1.7152852375415051094e-16)
(-8.9263475162512455141e-08 -7.652969390146130827e-10 0)
(-8.9285892689115977482e-08 -5.3627866944660521307e-10 0)