/*--------------------------------*- C++ -*----------------------------------*\
| =========                 |                                                 |
| \\      /  F ield         | OpenFOAM: The Open Source CFD Toolbox           |
|  \\    /   O peration     | Version:  v2306                                 |
|   \\  /    A nd           | Website:  www.openfoam.com                      |
|    \\/     M anipulation  |                                                 |
\*---------------------------------------------------------------------------*/
FoamFile
{
    version     2.0;
    format      ascii;
    class       volScalarField;
    object      Psi;
}
// * * * * * * * * * * * * * * * * * * * * * * * * * * * * * * * * * * * * * //

dimensions      [0 0 0 0 0 0 0];

internalField   nonuniform List<scalar> 
10000
(
-1.158580738595221
-1.1584648805213613
-1.158349022447502
-1.1582331643736423
-1.158117306299783
-1.1580014482259233
-1.1578855901520637
-1.1577697320782043
-1.1576538740043447
-1.1575380159304853
-1.1574221578566257
-1.1573062997827661
-1.1571904417089067
-1.1570745836350471
-1.1569587255611877
-1.1568428674873281
-1.1567270094134685
-1.1566111513396091
-1.1564952932657495
-1.15637943519189
-1.1562635771180305
-1.156147719044171
-1.1560318609703115
-1.155916002896452
-1.1558001448225923
-1.155684286748733
-1.1555684286748733
-1.155452570601014
-1.1553367125271543
-1.1552208544532947
-1.1551049963794353
-1.1549891383055757
-1.1548732802317163
-1.1547574221578567
-1.154641564083997
-1.1545257060101377
-1.154409847936278
-1.1542939898624187
-1.154178131788559
-1.1540622737146995
-1.15394641564084
-1.1538305575669805
-1.153714699493121
-1.1535988414192615
-1.153482983345402
-1.1533671252715425
-1.153251267197683
-1.1531354091238233
-1.153019551049964
-1.1529036929761043
-1.152787834902245
-1.1526719768283853
-1.1525561187545257
-1.1524402606806663
-1.1523244026068067
-1.1522085445329473
-1.1520926864590877
-1.151976828385228
-1.1518609703113687
-1.151745112237509
-1.1516292541636497
-1.15151339608979
-1.1513975380159305
-1.151281679942071
-1.1511658218682115
-1.151049963794352
-1.1509341057204925
-1.1508182476466329
-1.1507023895727735
-1.1505865314989139
-1.1504706734250543
-1.1503548153511949
-1.1502389572773353
-1.1501230992034759
-1.1500072411296163
-1.1498913830557567
-1.1497755249818973
-1.1496596669080377
-1.1495438088341783
-1.1494279507603187
-1.149312092686459
-1.1491962346125997
-1.14908037653874
-1.1489645184648807
-1.148848660391021
-1.1487328023171615
-1.148616944243302
-1.1485010861694425
-1.148385228095583
-1.1482693700217235
-1.1481535119478639
-1.1480376538740045
-1.1479217958001449
-1.1478059377262855
-1.1476900796524259
-1.1475742215785663
-1.1474583635047069
-1.1473425054308473
-1.1472266473569879
-1.1471107892831283
-1.1469949312092687
-1.1468790731354093
-1.1467632150615497
-1.14664735698769
-1.1465314989138307
-1.146415640839971
-1.1462997827661117
-1.146183924692252
-1.1460680666183924
-1.145952208544533
-1.1458363504706734
-1.145720492396814
-1.1456046343229545
-1.1454887762490948
-1.1453729181752355
-1.1452570601013758
-1.1451412020275165
-1.1450253439536568
-1.1449094858797972
-1.1447936278059379
-1.1446777697320782
-1.1445619116582189
-1.1444460535843592
-1.1443301955104996
-1.1442143374366402
-1.1440984793627806
-1.1439826212889213
-1.1438667632150616
-1.143750905141202
-1.1436350470673426
-1.143519188993483
-1.1434033309196234
-1.143287472845764
-1.1431716147719044
-1.143055756698045
-1.1429398986241854
-1.1428240405503258
-1.1427081824764664
-1.1425923244026068
-1.1424764663287474
-1.1423606082548878
-1.1422447501810282
-1.1421288921071688
-1.1420130340333092
-1.1418971759594498
-1.1417813178855902
-1.1416654598117306
-1.1415496017378712
-1.1414337436640116
-1.1413178855901522
-1.1412020275162926
-1.141086169442433
-1.1409703113685736
-1.140854453294714
-1.1407385952208546
-1.140622737146995
-1.1405068790731354
-1.140391020999276
-1.1402751629254164
-1.1401593048515568
-1.1400434467776974
-1.1399275887038378
-1.1398117306299784
-1.1396958725561188
-1.1395800144822592
-1.1394641564083998
-1.1393482983345402
-1.1392324402606808
-1.1391165821868212
-1.1390007241129616
-1.1388848660391022
-1.1387690079652426
-1.1386531498913832
-1.1385372918175236
-1.138421433743664
-1.1383055756698046
-1.138189717595945
-1.1380738595220856
-1.137958001448226
-1.1378421433743664
-1.137726285300507
-1.1376104272266474
-1.1374945691527878
-1.1373787110789284
-1.1372628530050688
-1.1371469949312094
-1.1370311368573498
-1.1369152787834902
-1.1367994207096308
-1.1366835626357712
-1.1365677045619118
-1.1364518464880522
-1.1363359884141926
-1.1362201303403332
-1.1361042722664736
-1.1359884141926142
-1.1358725561187546
-1.135756698044895
-1.1356408399710356
-1.135524981897176
-1.1354091238233166
-1.135293265749457
-1.1351774076755974
-1.135061549601738
-1.1349456915278784
-1.134829833454019
-1.1347139753801594
-1.1345981173062998
-1.1344822592324404
-1.1343664011585808
-1.1342505430847214
-1.1341346850108618
-1.1340188269370022
-1.1339029688631428
-1.1337871107892832
-1.1336712527154236
-1.1335553946415642
-1.1334395365677046
-1.1333236784938452
-1.1332078204199856
-1.133091962346126
-1.1329761042722666
-1.132860246198407
-1.1327443881245476
-1.132628530050688
-1.1325126719768284
-1.132396813902969
-1.1322809558291094
-1.13216509775525
-1.1320492396813904
-1.1319333816075308
-1.1318175235336714
-1.1317016654598118
-1.1315858073859524
-1.1314699493120928
-1.1313540912382332
-1.1312382331643738
-1.1311223750905142
-1.1310065170166546
-1.1308906589427952
-1.1307748008689356
-1.1306589427950762
-1.1305430847212166
-1.130427226647357
-1.1303113685734976
-1.130195510499638
-1.1300796524257786
-1.129963794351919
-1.1298479362780594
-1.1297320782042
-1.1296162201303404
-1.129500362056481
-1.1293845039826214
-1.1292686459087617
-1.1291527878349024
-1.1290369297610428
-1.1289210716871834
-1.1288052136133238
-1.1286893555394641
-1.1285734974656048
-1.1284576393917451
-1.1283417813178858
-1.1282259232440262
-1.1281100651701665
-1.1279942070963072
-1.1278783490224475
-1.1277624909485882
-1.1276466328747285
-1.127530774800869
-1.1274149167270096
-1.12729905865315
-1.1271832005792906
-1.127067342505431
-1.1269514844315713
-1.126835626357712
-1.1267197682838523
-1.1266039102099927
-1.1264880521361333
-1.1263721940622737
-1.1262563359884143
-1.1261404779145547
-1.1260246198406951
-1.1259087617668357
-1.1257929036929761
-1.1256770456191167
-1.1255611875452571
-1.1254453294713975
-1.1253294713975381
-1.1252136133236785
-1.1250977552498191
-1.1249818971759595
-1.1248660391021
-1.1247501810282405
-1.124634322954381
-1.1245184648805213
-1.124402606806662
-1.1242867487328023
-1.124170890658943
-1.1240550325850833
-1.1239391745112237
-1.1238233164373643
-1.1237074583635047
-1.1235916002896453
-1.1234757422157857
-1.1233598841419261
-1.1232440260680667
-1.1231281679942071
-1.1230123099203477
-1.1228964518464881
-1.1227805937726285
-1.1226647356987691
-1.1225488776249095
-1.1224330195510501
-1.1223171614771905
-1.122201303403331
-1.1220854453294715
-1.121969587255612
-1.1218537291817525
-1.121737871107893
-1.1216220130340333
-1.121506154960174
-1.1213902968863143
-1.121274438812455
-1.1211585807385953
-1.1210427226647357
-1.1209268645908763
-1.1208110065170167
-1.120695148443157
-1.1205792903692977
-1.120463432295438
-1.1203475742215787
-1.120231716147719
-1.1201158580738595
-1.12
-1.1198841419261405
-1.119768283852281
-1.1196524257784215
-1.119536567704562
-1.1194207096307025
-1.119304851556843
-1.1191889934829835
-1.119073135409124
-1.1189572773352643
-1.118841419261405
-1.1187255611875453
-1.118609703113686
-1.1184938450398263
-1.1183779869659667
-1.1182621288921073
-1.1181462708182477
-1.118030412744388
-1.1179145546705287
-1.117798696596669
-1.1176828385228097
-1.11756698044895
-1.1174511223750905
-1.117335264301231
-1.1172194062273715
-1.117103548153512
-1.1169876900796525
-1.1168718320057929
-1.1167559739319335
-1.1166401158580739
-1.1165242577842145
-1.1164083997103549
-1.1162925416364953
-1.1161766835626359
-1.1160608254887763
-1.1159449674149169
-1.1158291093410573
-1.1157132512671977
-1.1155973931933383
-1.1154815351194787
-1.1153656770456193
-1.1152498189717597
-1.1151339608979
-1.1150181028240407
-1.114902244750181
-1.1147863866763217
-1.114670528602462
-1.1145546705286025
-1.114438812454743
-1.1143229543808835
-1.114207096307024
-1.1140912382331645
-1.1139753801593049
-1.1138595220854455
-1.1137436640115859
-1.1136278059377263
-1.1135119478638669
-1.1133960897900073
-1.1132802317161479
-1.1131643736422883
-1.1130485155684287
-1.1129326574945693
-1.1128167994207097
-1.1127009413468503
-1.1125850832729907
-1.112469225199131
-1.1123533671252717
-1.112237509051412
-1.1121216509775527
-1.112005792903693
-1.1118899348298334
-1.111774076755974
-1.1116582186821145
-1.111542360608255
-1.1114265025343955
-1.1113106444605358
-1.1111947863866765
-1.1110789283128168
-1.1109630702389572
-1.1108472121650979
-1.1107313540912382
-1.1106154960173789
-1.1104996379435192
-1.1103837798696596
-1.1102679217958002
-1.1101520637219406
-1.1100362056480813
-1.1099203475742216
-1.109804489500362
-1.1096886314265026
-1.109572773352643
-1.1094569152787837
-1.109341057204924
-1.1092251991310644
-1.109109341057205
-1.1089934829833454
-1.108877624909486
-1.1087617668356264
-1.1086459087617668
-1.1085300506879074
-1.1084141926140478
-1.1082983345401884
-1.1081824764663288
-1.1080666183924692
-1.1079507603186098
-1.1078349022447502
-1.1077190441708906
-1.1076031860970312
-1.1074873280231716
-1.1073714699493122
-1.1072556118754526
-1.107139753801593
-1.1070238957277336
-1.106908037653874
-1.1067921795800146
-1.106676321506155
-1.1065604634322954
-1.106444605358436
-1.1063287472845764
-1.106212889210717
-1.1060970311368574
-1.1059811730629978
-1.1058653149891384
-1.1057494569152788
-1.1056335988414194
-1.1055177407675598
-1.1054018826937002
-1.1052860246198408
-1.1051701665459812
-1.1050543084721218
-1.1049384503982622
-1.1048225923244026
-1.1047067342505432
-1.1045908761766836
-1.104475018102824
-1.1043591600289646
-1.104243301955105
-1.1041274438812456
-1.104011585807386
-1.1038957277335264
-1.103779869659667
-1.1036640115858074
-1.103548153511948
-1.1034322954380884
-1.1033164373642288
-1.1032005792903694
-1.1030847212165098
-1.1029688631426504
-1.1028530050687908
-1.1027371469949312
-1.1026212889210718
-1.1025054308472122
-1.1023895727733528
-1.1022737146994932
-1.1021578566256336
-1.1020419985517742
-1.1019261404779146
-1.1018102824040552
-1.1016944243301956
-1.101578566256336
-1.1014627081824766
-1.101346850108617
-1.1012309920347574
-1.101115133960898
-1.1009992758870384
-1.100883417813179
-1.1007675597393194
-1.1006517016654598
-1.1005358435916004
-1.1004199855177408
-1.1003041274438814
-1.1001882693700218
-1.1000724112961622
-1.0999565532223028
-1.0998406951484432
-1.0997248370745838
-1.0996089790007242
-1.0994931209268646
-1.0993772628530052
-1.0992614047791456
-1.0991455467052862
-1.0990296886314266
-1.098913830557567
-1.0987979724837076
-1.098682114409848
-1.0985662563359886
-1.098450398262129
-1.0983345401882694
-1.09821868211441
-1.0981028240405504
-1.0979869659666908
-1.0978711078928314
-1.0977552498189718
-1.0976393917451124
-1.0975235336712528
-1.0974076755973932
-1.0972918175235338
-1.0971759594496742
-1.0970601013758148
-1.0969442433019552
-1.0968283852280956
-1.0967125271542362
-1.0965966690803766
-1.0964808110065172
-1.0963649529326576
-1.096249094858798
-1.0961332367849386
-1.096017378711079
-1.0959015206372196
-1.09578566256336
-1.0956698044895004
-1.095553946415641
-1.0954380883417814
-1.095322230267922
-1.0952063721940624
-1.0950905141202028
-1.0949746560463434
-1.0948587979724838
-1.0947429398986241
-1.0946270818247648
-1.0945112237509051
-1.0943953656770458
-1.0942795076031862
-1.0941636495293265
-1.0940477914554672
-1.0939319333816075
-1.0938160753077482
-1.0937002172338885
-1.093584359160029
-1.0934685010861696
-1.09335264301231
-1.0932367849384506
-1.093120926864591
-1.0930050687907313
-1.092889210716872
-1.0927733526430123
-1.092657494569153
-1.0925416364952933
-1.0924257784214337
-1.0923099203475743
-1.0921940622737147
-1.0920782041998551
-1.0919623461259957
-1.0918464880521361
-1.0917306299782767
-1.0916147719044171
-1.0914989138305575
-1.0913830557566981
-1.0912671976828385
-1.0911513396089791
-1.0910354815351195
-1.09091962346126
-1.0908037653874005
-1.090687907313541
-1.0905720492396815
-1.090456191165822
-1.0903403330919623
-1.090224475018103
-1.0901086169442433
-1.089992758870384
-1.0898769007965243
-1.0897610427226647
-1.0896451846488053
-1.0895293265749457
-1.0894134685010863
-1.0892976104272267
-1.0891817523533671
-1.0890658942795077
-1.0889500362056481
-1.0888341781317887
-1.0887183200579291
-1.0886024619840695
-1.0884866039102101
-1.0883707458363505
-1.0882548877624911
-1.0881390296886315
-1.088023171614772
-1.0879073135409125
-1.087791455467053
-1.0876755973931935
-1.087559739319334
-1.0874438812454743
-1.087328023171615
-1.0872121650977553
-1.0870963070238957
-1.0869804489500363
-1.0868645908761767
-1.0867487328023173
-1.0866328747284577
-1.086517016654598
-1.0864011585807387
-1.086285300506879
-1.0861694424330197
-1.08605358435916
-1.0859377262853005
-1.085821868211441
-1.0857060101375815
-1.085590152063722
-1.0854742939898625
-1.085358435916003
-1.0852425778421435
-1.085126719768284
-1.0850108616944243
-1.084895003620565
-1.0847791455467053
-1.084663287472846
-1.0845474293989863
-1.0844315713251267
-1.0843157132512673
-1.0841998551774077
-1.0840839971035483
-1.0839681390296887
-1.083852280955829
-1.0837364228819697
-1.08362056480811
-1.0835047067342507
-1.083388848660391
-1.0832729905865315
-1.083157132512672
-1.0830412744388125
-1.082925416364953
-1.0828095582910935
-1.0826937002172339
-1.0825778421433745
-1.0824619840695149
-1.0823461259956555
-1.0822302679217959
-1.0821144098479363
-1.0819985517740769
-1.0818826937002173
-1.081766835626358
-1.0816509775524983
-1.0815351194786387
-1.0814192614047793
-1.0813034033309197
-1.08118754525706
-1.0810716871832007
-1.080955829109341
-1.0808399710354817
-1.080724112961622
-1.0806082548877625
-1.080492396813903
-1.0803765387400435
-1.080260680666184
-1.0801448225923245
-1.0800289645184649
-1.0799131064446055
-1.0797972483707459
-1.0796813902968865
-1.0795655322230269
-1.0794496741491673
-1.0793338160753079
-1.0792179580014483
-1.0791020999275889
-1.0789862418537293
-1.0788703837798697
-1.0787545257060103
-1.0786386676321507
-1.078522809558291
-1.0784069514844317
-1.078291093410572
-1.0781752353367127
-1.078059377262853
-1.0779435191889934
-1.077827661115134
-1.0777118030412745
-1.077595944967415
-1.0774800868935555
-1.0773642288196958
-1.0772483707458365
-1.0771325126719768
-1.0770166545981175
-1.0769007965242579
-1.0767849384503982
-1.0766690803765389
-1.0765532223026792
-1.0764373642288199
-1.0763215061549603
-1.0762056480811006
-1.0760897900072413
-1.0759739319333816
-1.0758580738595223
-1.0757422157856626
-1.075626357711803
-1.0755104996379437
-1.075394641564084
-1.0752787834902247
-1.075162925416365
-1.0750470673425054
-1.074931209268646
-1.0748153511947864
-1.0746994931209268
-1.0745836350470674
-1.0744677769732078
-1.0743519188993484
-1.0742360608254888
-1.0741202027516292
-1.0740043446777698
-1.0738884866039102
-1.0737726285300508
-1.0736567704561912
-1.0735409123823316
-1.0734250543084722
-1.0733091962346126
-1.0731933381607532
-1.0730774800868936
-1.072961622013034
-1.0728457639391746
-1.072729905865315
-1.0726140477914556
-1.072498189717596
-1.0723823316437364
-1.072266473569877
-1.0721506154960174
-1.0720347574221578
-1.0719188993482984
-1.0718030412744388
-1.0716871832005794
-1.0715713251267198
-1.0714554670528602
-1.0713396089790008
-1.0712237509051412
-1.0711078928312818
-1.0709920347574222
-1.0708761766835626
-1.0707603186097032
-1.0706444605358436
-1.0705286024619842
-1.0704127443881246
-1.070296886314265
-1.0701810282404056
-1.070065170166546
-1.0699493120926866
-1.069833454018827
-1.0697175959449674
-1.069601737871108
-1.0694858797972484
-1.069370021723389
-1.0692541636495294
-1.0691383055756698
-1.0690224475018104
-1.0689065894279508
-1.0687907313540914
-1.0686748732802318
-1.0685590152063722
-1.0684431571325128
-1.0683272990586532
-1.0682114409847936
-1.0680955829109342
-1.0679797248370746
-1.0678638667632152
-1.0677480086893556
-1.067632150615496
-1.0675162925416366
-1.067400434467777
-1.0672845763939176
-1.067168718320058
-1.0670528602461984
-1.066937002172339
-1.0668211440984794
-1.06670528602462
-1.0665894279507604
-1.0664735698769008
-1.0663577118030414
-1.0662418537291818
-1.0661259956553222
-1.0660101375814628
-1.0658942795076032
-1.0657784214337438
-1.0656625633598842
-1.0655467052860246
-1.0654308472121652
-1.0653149891383056
-1.0651991310644462
-1.0650832729905866
-1.064967414916727
-1.0648515568428676
-1.064735698769008
-1.0646198406951486
-1.064503982621289
-1.0643881245474294
-1.06427226647357
-1.0641564083997104
-1.064040550325851
-1.0639246922519914
-1.0638088341781318
-1.0636929761042724
-1.0635771180304128
-1.0634612599565534
-1.0633454018826938
-1.0632295438088342
-1.0631136857349748
-1.0629978276611152
-1.0628819695872558
-1.0627661115133962
-1.0626502534395366
-1.0625343953656772
-1.0624185372918176
-1.0623026792179582
-1.0621868211440986
-1.062070963070239
-1.0619551049963796
-1.06183924692252
-1.0617233888486606
-1.061607530774801
-1.0614916727009414
-1.061375814627082
-1.0612599565532224
-1.0611440984793628
-1.0610282404055034
-1.0609123823316438
-1.0607965242577844
-1.0606806661839248
-1.0605648081100651
-1.0604489500362058
-1.0603330919623462
-1.0602172338884868
-1.0601013758146272
-1.0599855177407675
-1.0598696596669082
-1.0597538015930485
-1.059637943519189
-1.0595220854453296
-1.05940622737147
-1.0592903692976106
-1.059174511223751
-1.0590586531498913
-1.058942795076032
-1.0588269370021723
-1.058711078928313
-1.0585952208544533
-1.0584793627805937
-1.0583635047067343
-1.0582476466328747
-1.0581317885590154
-1.0580159304851557
-1.0579000724112961
-1.0577842143374367
-1.0576683562635771
-1.0575524981897177
-1.0574366401158581
-1.0573207820419985
-1.0572049239681391
-1.0570890658942795
-1.0569732078204201
-1.0568573497465605
-1.056741491672701
-1.0566256335988415
-1.056509775524982
-1.0563939174511225
-1.056278059377263
-1.0561622013034033
-1.056046343229544
-1.0559304851556843
-1.055814627081825
-1.0556987690079653
-1.0555829109341057
-1.0554670528602463
-1.0553511947863867
-1.0552353367125273
-1.0551194786386677
-1.0550036205648081
-1.0548877624909487
-1.0547719044170891
-1.0546560463432295
-1.0545401882693701
-1.0544243301955105
-1.0543084721216511
-1.0541926140477915
-1.054076755973932
-1.0539608979000725
-1.053845039826213
-1.0537291817523535
-1.053613323678494
-1.0534974656046343
-1.053381607530775
-1.0532657494569153
-1.053149891383056
-1.0530340333091963
-1.0529181752353367
-1.0528023171614773
-1.0526864590876177
-1.052570601013758
-1.0524547429398987
-1.052338884866039
-1.0522230267921797
-1.05210716871832
-1.0519913106444605
-1.051875452570601
-1.0517595944967415
-1.0516437364228821
-1.0515278783490225
-1.051412020275163
-1.0512961622013035
-1.051180304127444
-1.0510644460535845
-1.050948587979725
-1.0508327299058653
-1.050716871832006
-1.0506010137581463
-1.050485155684287
-1.0503692976104273
-1.0502534395365677
-1.0501375814627083
-1.0500217233888487
-1.0499058653149893
-1.0497900072411297
-1.04967414916727
-1.0495582910934107
-1.049442433019551
-1.0493265749456917
-1.049210716871832
-1.0490948587979725
-1.048979000724113
-1.0488631426502535
-1.048747284576394
-1.0486314265025345
-1.0485155684286749
-1.0483997103548155
-1.0482838522809559
-1.0481679942070963
-1.048052136133237
-1.0479362780593773
-1.047820419985518
-1.0477045619116583
-1.0475887038377987
-1.0474728457639393
-1.0473569876900797
-1.0472411296162203
-1.0471252715423607
-1.047009413468501
-1.0468935553946417
-1.046777697320782
-1.0466618392469225
-1.046545981173063
-1.0464301230992035
-1.046314265025344
-1.0461984069514845
-1.0460825488776249
-1.0459666908037655
-1.0458508327299059
-1.0457349746560465
-1.0456191165821869
-1.0455032585083273
-1.0453874004344679
-1.0452715423606083
-1.0451556842867489
-1.0450398262128893
-1.0449239681390297
-1.0448081100651703
-1.0446922519913107
-1.0445763939174513
-1.0444605358435917
-1.044344677769732
-1.0442288196958727
-1.044112961622013
-1.0439971035481537
-1.043881245474294
-1.0437653874004345
-1.043649529326575
-1.0435336712527155
-1.043417813178856
-1.0433019551049965
-1.0431860970311368
-1.0430702389572775
-1.0429543808834179
-1.0428385228095585
-1.0427226647356989
-1.0426068066618392
-1.0424909485879799
-1.0423750905141203
-1.0422592324402606
-1.0421433743664013
-1.0420275162925416
-1.0419116582186823
-1.0417958001448226
-1.041679942070963
-1.0415640839971037
-1.041448225923244
-1.0413323678493847
-1.041216509775525
-1.0411006517016654
-1.040984793627806
-1.0408689355539464
-1.040753077480087
-1.0406372194062274
-1.0405213613323678
-1.0404055032585084
-1.0402896451846488
-1.0401737871107894
-1.0400579290369298
-1.0399420709630702
-1.0398262128892108
-1.0397103548153512
-1.0395944967414916
-1.0394786386676322
-1.0393627805937726
-1.0392469225199132
-1.0391310644460536
-1.039015206372194
-1.0388993482983346
-1.038783490224475
-1.0386676321506156
-1.038551774076756
-1.0384359160028964
-1.038320057929037
-1.0382041998551774
-1.038088341781318
-1.0379724837074584
-1.0378566256335988
-1.0377407675597394
-1.0376249094858798
-1.0375090514120204
-1.0373931933381608
-1.0372773352643012
-1.0371614771904418
-1.0370456191165822
-1.0369297610427228
-1.0368139029688632
-1.0366980448950036
-1.0365821868211442
-1.0364663287472846
-1.0363504706734252
-1.0362346125995656
-1.036118754525706
-1.0360028964518466
-1.035887038377987
-1.0357711803041276
-1.035655322230268
-1.0355394641564084
-1.035423606082549
-1.0353077480086894
-1.0351918899348298
-1.0350760318609704
-1.0349601737871108
-1.0348443157132514
-1.0347284576393918
-1.0346125995655322
-1.0344967414916728
-1.0343808834178132
-1.0342650253439538
-1.0341491672700942
-1.0340333091962346
-1.0339174511223752
-1.0338015930485156
-1.0336857349746562
-1.0335698769007966
-1.033454018826937
-1.0333381607530776
-1.033222302679218
-1.0331064446053584
-1.032990586531499
-1.0328747284576394
-1.03275887038378
-1.0326430123099204
-1.0325271542360608
-1.0324112961622014
-1.0322954380883418
-1.0321795800144824
-1.0320637219406228
-1.0319478638667632
-1.0318320057929038
-1.0317161477190442
-1.0316002896451848
-1.0314844315713252
-1.0313685734974656
-1.0312527154236062
-1.0311368573497466
-1.0310209992758872
-1.0309051412020276
-1.030789283128168
-1.0306734250543086
-1.030557566980449
-1.0304417089065896
-1.03032585083273
-1.0302099927588704
-1.030094134685011
-1.0299782766111514
-1.029862418537292
-1.0297465604634324
-1.0296307023895728
-1.0295148443157134
-1.0293989862418538
-1.0292831281679944
-1.0291672700941348
-1.0290514120202752
-1.0289355539464158
-1.0288196958725562
-1.0287038377986966
-1.0285879797248372
-1.0284721216509776
-1.0283562635771182
-1.0282404055032586
-1.028124547429399
-1.0280086893555396
-1.02789283128168
-1.0277769732078204
-1.027661115133961
-1.0275452570601014
-1.027429398986242
-1.0273135409123824
-1.0271976828385228
-1.0270818247646634
-1.0269659666908038
-1.0268501086169444
-1.0267342505430848
-1.0266183924692251
-1.0265025343953658
-1.0263866763215062
-1.0262708182476468
-1.0261549601737872
-1.0260391020999275
-1.0259232440260682
-1.0258073859522086
-1.0256915278783492
-1.0255756698044896
-1.02545981173063
-1.0253439536567706
-1.025228095582911
-1.0251122375090516
-1.024996379435192
-1.0248805213613323
-1.024764663287473
-1.0246488052136133
-1.024532947139754
-1.0244170890658943
-1.0243012309920347
-1.0241853729181754
-1.0240695148443157
-1.0239536567704564
-1.0238377986965967
-1.0237219406227371
-1.0236060825488777
-1.0234902244750181
-1.0233743664011588
-1.0232585083272991
-1.0231426502534395
-1.0230267921795801
-1.0229109341057205
-1.0227950760318612
-1.0226792179580015
-1.022563359884142
-1.0224475018102825
-1.022331643736423
-1.0222157856625635
-1.022099927588704
-1.0219840695148443
-1.021868211440985
-1.0217523533671253
-1.0216364952932657
-1.0215206372194063
-1.0214047791455467
-1.0212889210716873
-1.0211730629978277
-1.0210572049239681
-1.0209413468501087
-1.0208254887762491
-1.0207096307023897
-1.0205937726285301
-1.0204779145546705
-1.0203620564808111
-1.0202461984069515
-1.020130340333092
-1.0200144822592325
-1.019898624185373
-1.0197827661115135
-1.019666908037654
-1.0195510499637943
-1.019435191889935
-1.0193193338160753
-1.019203475742216
-1.0190876176683563
-1.0189717595944967
-1.0188559015206373
-1.0187400434467777
-1.0186241853729183
-1.0185083272990587
-1.018392469225199
-1.0182766111513397
-1.01816075307748
-1.0180448950036207
-1.017929036929761
-1.0178131788559015
-1.0176973207820421
-1.0175814627081825
-1.0174656046343231
-1.0173497465604635
-1.017233888486604
-1.0171180304127445
-1.017002172338885
-1.0168863142650255
-1.016770456191166
-1.0166545981173063
-1.016538740043447
-1.0164228819695873
-1.016307023895728
-1.0161911658218683
-1.0160753077480087
-1.0159594496741493
-1.0158435916002897
-1.0157277335264303
-1.0156118754525707
-1.015496017378711
-1.0153801593048517
-1.015264301230992
-1.0151484431571327
-1.015032585083273
-1.0149167270094135
-1.014800868935554
-1.0146850108616945
-1.0145691527878349
-1.0144532947139755
-1.0143374366401159
-1.0142215785662563
-1.014105720492397
-1.0139898624185373
-1.013874004344678
-1.0137581462708183
-1.0136422881969587
-1.0135264301230993
-1.0134105720492397
-1.0132947139753803
-1.0131788559015207
-1.013062997827661
-1.0129471397538017
-1.012831281679942
-1.0127154236060827
-1.012599565532223
-1.0124837074583635
-1.012367849384504
-1.0122519913106445
-1.012136133236785
-1.0120202751629255
-1.0119044170890659
-1.0117885590152065
-1.0116727009413469
-1.0115568428674875
-1.0114409847936279
-1.0113251267197683
-1.0112092686459089
-1.0110934105720493
-1.0109775524981899
-1.0108616944243303
-1.0107458363504707
-1.0106299782766113
-1.0105141202027517
-1.0103982621288923
-1.0102824040550327
-1.010166545981173
-1.0100506879073137
-1.009934829833454
-1.0098189717595947
-1.009703113685735
-1.0095872556118755
-1.009471397538016
-1.0093555394641565
-1.0092396813902968
-1.0091238233164375
-1.0090079652425779
-1.0088921071687185
-1.0087762490948589
-1.0086603910209992
-1.0085445329471399
-1.0084286748732803
-1.0083128167994209
-1.0081969587255613
-1.0080811006517016
-1.0079652425778423
-1.0078493845039826
-1.007733526430123
-1.0076176683562637
-1.007501810282404
-1.0073859522085447
-1.007270094134685
-1.0071542360608254
-1.007038377986966
-1.0069225199131064
-1.006806661839247
-1.0066908037653874
-1.0065749456915278
-1.0064590876176684
-1.0063432295438088
-1.0062273714699494
-1.0061115133960898
-1.0059956553222302
-1.0058797972483708
-1.0057639391745112
-1.0056480811006518
-1.0055322230267922
-1.0054163649529326
-1.0053005068790732
-1.0051846488052136
-1.0050687907313542
-1.0049529326574946
-1.004837074583635
-1.0047212165097756
-1.004605358435916
-1.0044895003620566
-1.004373642288197
-1.0042577842143374
-1.004141926140478
-1.0040260680666184
-1.003910209992759
-1.0037943519188994
-1.0036784938450398
-1.0035626357711804
-1.0034467776973208
-1.0033309196234614
-1.0032150615496018
-1.0030992034757422
-1.0029833454018828
-1.0028674873280232
-1.0027516292541638
-1.0026357711803042
-1.0025199131064446
-1.0024040550325852
-1.0022881969587256
-1.0021723388848662
-1.0020564808110066
-1.001940622737147
-1.0018247646632876
-1.001708906589428
-1.0015930485155684
-1.001477190441709
-1.0013613323678494
-1.00124547429399
-1.0011296162201304
-1.0010137581462708
-1.0008979000724114
-1.0007820419985518
-1.0006661839246922
-1.0005503258508328
-1.0004344677769732
-1.0003186097031138
-1.0002027516292542
-1.0000868935553946
-0.9999710354815352
-0.9998551774076756
-0.9997393193338162
-0.9996234612599566
-0.9995076031860971
-0.9993917451122376
-0.999275887038378
-0.9991600289645185
-0.999044170890659
-0.9989283128167995
-0.99881245474294
-0.9986965966690804
-0.9985807385952209
-0.9984648805213614
-0.9983490224475019
-0.9982331643736424
-0.9981173062997828
-0.9980014482259233
-0.9978855901520638
-0.9977697320782043
-0.9976538740043448
-0.9975380159304852
-0.9974221578566257
-0.9973062997827662
-0.9971904417089066
-0.9970745836350471
-0.9969587255611876
-0.9968428674873281
-0.9967270094134686
-0.996611151339609
-0.9964952932657495
-0.99637943519189
-0.9962635771180305
-0.996147719044171
-0.9960318609703114
-0.9959160028964519
-0.9958001448225924
-0.9956842867487329
-0.9955684286748734
-0.9954525706010138
-0.9953367125271543
-0.9952208544532948
-0.9951049963794353
-0.9949891383055758
-0.9948732802317162
-0.9947574221578567
-0.9946415640839972
-0.9945257060101377
-0.9944098479362782
-0.9942939898624186
-0.9941781317885591
-0.9940622737146996
-0.99394641564084
-0.9938305575669805
-0.993714699493121
-0.9935988414192615
-0.993482983345402
-0.9933671252715424
-0.9932512671976829
-0.9931354091238234
-0.9930195510499639
-0.9929036929761044
-0.9927878349022448
-0.9926719768283853
-0.9925561187545258
-0.9924402606806663
-0.9923244026068068
-0.9922085445329472
-0.9920926864590877
-0.9919768283852282
-0.9918609703113687
-0.9917451122375092
-0.9916292541636496
-0.9915133960897901
-0.9913975380159306
-0.9912816799420711
-0.9911658218682116
-0.991049963794352
-0.9909341057204925
-0.990818247646633
-0.9907023895727733
-0.990586531498914
-0.9904706734250543
-0.9903548153511949
-0.9902389572773354
-0.9901230992034757
-0.9900072411296162
-0.9898913830557567
-0.9897755249818972
-0.9896596669080377
-0.9895438088341781
-0.9894279507603186
-0.9893120926864591
-0.9891962346125996
-0.9890803765387401
-0.9889645184648805
-0.988848660391021
-0.9887328023171615
-0.988616944243302
-0.9885010861694425
-0.9883852280955829
-0.9882693700217234
-0.9881535119478639
-0.9880376538740044
-0.9879217958001449
-0.9878059377262853
-0.9876900796524258